ITEM: TIMESTEP
0
ITEM: NUMBER OF ATOMS
15015
ITEM: BOX BOUNDS pp pp pp
6.5785501639275878e-01 4.9437144983605364e+01
6.4305158407256258e-01 4.9362948415933445e+01
6.5689452945985138e-01 4.9439105470539751e+01
ITEM: ATOMS id mol type element mass q x y z xu yu zu ix iy iz vx vy vz fx fy fz 
14897 2 15 D 0.4 -1.2271 4.8709 3.7851 6.92441 4.8709 52.505 55.7066 0 1 1 0.000662311 -2.5756e-05 -0.00237275 -0.159026 -4.44992 3.04046 
10328 2 6 S 31.66 1.8199 4.87103 3.78523 6.92936 4.87103 52.5051 55.7116 0 1 1 -0.00334469 0.00193925 -0.000129174 8.51228 -24.7945 22.1853 
14899 2 16 D 0.4 -2.0238 4.22772 4.16539 5.6903 4.22772 52.8853 54.4725 0 1 1 -0.000470289 0.000388655 -0.000556483 0.29231 -0.381161 -3.11657 
10330 2 7 O 15.6 1.6345 4.23489 4.16746 5.69039 4.23489 52.8874 54.4726 0 1 1 -0.00211039 0.00520634 -0.00328373 0.610458 5.38769 6.12529 
10333 2 9 F 18.6 1.274 7.02711 4.79639 6.07801 7.02711 53.5163 54.8602 0 1 1 -8.79957e-05 -0.00463715 0.00228966 16.5566 21.9381 -12.5856 
14902 2 18 D 0.4 -1.3442 7.03801 4.79657 6.07816 7.03801 53.5165 54.8604 0 1 1 -7.24965e-05 0.000434827 0.00231177 0.402748 0.611684 1.82469 
10331 2 8 C 11.61 1.9173 6.62473 3.6412 6.49039 6.62473 52.3611 55.2726 0 1 1 0.000637946 -0.00530125 0.00048487 -3.21528 -12.3006 18.3143 
14900 2 17 D 0.4 -1.7782 6.62409 3.6353 6.49314 6.62409 52.3552 55.2753 0 1 1 -0.00192254 0.000666725 -0.000557729 1.57818 7.57441 0.480571 
10334 2 9 F 18.6 1.274 6.87194 2.78797 5.51857 6.87194 51.5079 54.3008 0 1 1 0.00552985 0.00482925 -0.00313008 1.4757 -4.62371 -2.54174 
14903 2 18 D 0.4 -1.3442 6.88128 2.78537 5.5169 6.88128 51.5053 54.2991 0 1 1 -0.00234961 -0.000691098 0.000932219 -2.28165 -3.7669 1.02328 
3834 1 4 H 1.008 0.03 1.96579 6.5854 1.09235 50.7451 104.025 49.8746 1 2 1 0.00307558 0.00926512 0.0198901 -4.29716 12.5033 -12.1522 
11917 1 13 D 0.4 -2.3022 2.56601 4.58244 1.66618 51.3453 102.022 50.4484 1 2 1 -0.00091647 -0.000127828 0.00183526 -2.64985 1.32675 1.72272 
3828 1 3 C 11.61 2.4422 2.57207 4.58466 1.67244 51.3514 102.024 50.4547 1 2 1 0.00327062 0.00764964 0.0071622 -24.0775 -6.53396 -0.40766 
7376 1 4 H 1.008 0.03 7.47795 6.67601 2.57351 56.2572 -42.0439 -46.2087 1 -1 -1 -0.0154208 0.00920569 -0.00341438 21.4433 11.0356 29.1841 
11916 1 13 D 0.4 -2.3022 1.97101 5.98503 1.97219 50.7503 103.425 50.7544 1 2 1 0.000625617 -0.00219965 0.00170647 -1.29798 -1.32217 -0.882697 
3833 1 4 H 1.008 0.03 2.67017 6.40852 2.70526 51.4495 103.848 51.4875 1 2 1 0.0240383 0.00128843 -0.0178399 -3.21399 9.68372 0.289206 
3835 1 4 H 1.008 0.03 2.57105 3.9775 2.58546 51.3503 101.417 51.3677 1 2 1 -0.0163022 -0.0101791 0.0219852 3.03068 5.90724 -0.156013 
3827 1 3 C 11.61 2.4422 1.97681 5.99103 1.97664 50.7561 103.431 50.7589 1 2 1 0.00395916 0.00233582 -0.00299937 -1.65654 -38.6908 24.7214 
5995 1 4 H 1.008 0.03 4.89021 6.94989 5.51687 4.89021 6.94989 54.2991 0 0 1 -0.0170485 0.0213142 -0.00139311 -13.1131 6.01517 8.65982 
13241 1 12 D 0.4 -2.5798 8.37268 7.00599 3.21489 57.152 -41.7139 -45.5673 1 -1 -1 0.00101933 -0.00129548 -0.00204881 -2.98122 2.57464 -2.33807 
7362 1 2 C 11.61 2.6898 8.35863 7.0069 3.22321 57.1379 -41.713 -45.559 1 -1 -1 0.00256898 0.000371113 0.000326598 -34.1694 -8.6676 -45.5231 
7367 1 4 H 1.008 0.03 8.14505 8.00047 3.60426 56.9243 -40.7194 -45.178 1 -1 -1 -0.0196934 0.00826303 -0.0214227 0.246874 2.08046 3.16155 
7368 1 4 H 1.008 0.03 8.49577 6.30696 4.02114 57.2751 -42.4129 -44.7611 1 -1 -1 -0.00220583 0.0175673 0.000437162 -0.970586 -9.85139 11.422 
5996 1 4 H 1.008 0.03 4.33561 8.33658 6.65213 4.33561 8.33658 55.4343 0 0 1 0.0244703 -0.000349505 -0.0150096 15.6669 -14.7957 -8.35099 
4831 1 4 H 1.008 0.03 5.16044 2.90842 1.37168 -43.6189 51.6283 50.1539 -1 1 1 0.00785701 -0.00191238 0.0027969 18.7647 -5.83857 9.43868 
3321 1 4 H 1.008 0.03 1.54065 2.22042 5.54752 50.3199 2.22042 -43.2347 1 0 -1 -0.00359092 -0.0117036 -0.0197007 6.62127 -3.34478 -3.85027 
4828 1 4 H 1.008 0.03 8.40998 2.64019 2.44356 -40.3693 51.3601 51.2258 -1 1 1 0.0262811 -0.0245569 -0.0205632 12.0262 -31.6252 30.8893 
12291 1 12 D 0.4 -2.5798 5.70438 3.06243 2.32432 -43.0749 51.7823 51.1065 -1 1 1 -0.000270815 -0.00226896 0.00139751 -0.323903 -0.583809 4.20556 
5988 1 3 C 11.61 2.4422 4.97247 8.00974 5.80041 4.97247 8.00974 54.5826 0 0 1 -0.00412512 -0.00496432 -0.00572126 21.4813 9.08053 6.52769 
12727 1 13 D 0.4 -2.3022 4.98182 8.02014 5.7927 4.98182 8.02014 54.5749 0 0 1 -0.000652934 -0.00155986 7.1993e-05 0.736032 -2.33725 -1.93546 
5989 1 1 O 15.6 1.4447 6.37298 8.18761 6.05908 6.37298 8.18761 54.8413 0 0 1 0.00688461 0.00239617 0.00543318 -0.288274 9.90671 19.2344 
12728 1 11 D 0.4 -1.8447 6.37877 8.19249 6.05775 6.37877 8.19249 54.84 0 0 1 -0.0003834 -0.001287 0.00174909 1.2787 4.62082 -0.367897 
5985 1 1 O 15.6 1.4447 5.24799 8.39773 3.43023 5.24799 8.39773 52.2124 0 0 1 0.00476912 0.00414667 -0.000299818 12.9671 -9.65547 27.4044 
12724 1 11 D 0.4 -1.8447 5.25257 8.39923 3.42481 5.25257 8.39923 52.207 0 0 1 -0.00111127 0.00182352 -0.000773425 -3.83626 -0.062468 -1.90443 
12290 1 11 D 0.4 -1.8447 6.79038 3.95321 2.32404 -41.9889 52.6731 51.1063 -1 1 1 0.000372372 -0.00128395 -0.00157873 4.7049 -1.83192 -1.29592 
7039 1 4 H 1.008 0.03 1.90099 6.32469 7.35533 50.6803 -42.3952 104.92 1 -1 2 0.0184148 0.00569554 0.0208889 1.80793 25.3209 -10.2536 
4821 1 1 O 15.6 1.4447 6.79385 3.94935 2.32672 -41.9854 52.6693 51.1089 -1 1 1 0.000779007 0.00568152 0.00653311 3.03362 19.6327 -4.20173 
4822 1 2 C 11.61 2.6898 5.70969 3.05578 2.32932 -43.0696 51.7757 51.1115 -1 1 1 0.0074014 -0.00015108 0.00683892 -6.61827 -2.22993 10.705 
7029 1 1 O 15.6 1.4447 1.90983 8.35556 6.66121 50.6891 -40.3643 104.226 1 -1 2 -0.00321604 -0.00680529 -0.00381078 -2.14178 8.81112 -25.0147 
7030 1 2 C 11.61 2.6898 1.45086 7.0696 6.64288 50.2302 -41.6503 104.207 1 -1 2 0.000708497 -0.0012612 0.000908368 -7.93631 -56.8705 38.3772 
4829 1 4 H 1.008 0.03 4.95778 3.47116 3.01784 -43.8215 52.1911 51.8 -1 1 1 -0.0264952 -0.010531 0.0151692 5.62261 -3.03585 -5.27392 
3836 1 4 H 1.008 0.03 3.57009 4.72482 1.34495 52.3494 102.165 50.1272 1 2 1 0.0232918 -0.0252384 0.0159749 19.05 -2.34418 -0.801922 
5992 1 4 H 1.008 0.03 3.90474 8.7065 1.79402 3.90474 8.7065 50.5762 0 0 1 -0.00404564 -0.0124965 -0.0127341 20.9356 -8.62586 12.6003 
11914 1 11 D 0.4 -1.8447 0.678002 5.75945 2.58309 49.4573 103.199 51.3653 1 2 1 -0.00112773 -0.00232329 0.000220001 0.264294 1.6568 1.36159 
4830 1 4 H 1.008 0.03 6.103 2.16879 2.83893 -42.6763 50.8887 51.6211 -1 1 1 -0.0179306 -0.00850276 0.0146902 -12.2089 -7.87032 -10.9697 
13118 1 11 D 0.4 -1.8447 1.90864 8.35664 6.65392 50.6879 -40.3633 104.218 1 -1 2 -0.000934888 -0.00240429 0.00171842 -0.608618 3.24368 -0.720891 
13119 1 12 D 0.4 -2.5798 1.44448 7.07701 6.63693 50.2238 -41.6429 104.201 1 -1 2 0.00169759 -0.00066984 0.00137749 -2.62178 -6.0781 3.17407 
3315 1 3 C 11.61 2.4422 0.815317 2.98243 5.79023 49.5946 2.98243 -42.992 1 0 -1 0.00637963 -0.00621132 0.00339861 5.2613 37.6822 6.05871 
7037 1 4 H 1.008 0.03 1.62237 6.59133 5.73108 50.4017 -42.1286 103.296 1 -1 2 -0.00266331 0.0245222 -0.00931929 2.79759 -6.23012 -31.135 
10329 2 7 O 15.6 1.6345 4.6325 2.42858 7.43663 4.6325 51.1485 56.2188 0 1 1 -0.00262713 -0.000454231 -0.000875664 0.996673 31.6019 -2.89358 
11724 1 13 D 0.4 -2.3022 0.802846 2.97758 5.79118 49.5821 2.97758 -42.991 1 0 -1 0.000966199 -0.00223308 -0.000135201 -2.24535 -0.0955435 -0.152658 
3322 1 4 H 1.008 0.03 1.32221 4.00725 5.87666 50.1015 4.00725 -42.9056 1 0 -1 -0.00104156 0.0206667 0.00899023 -10.4377 -36.8165 -0.882655 
5999 1 4 H 1.008 0.03 7.46249 7.01889 7.2222 7.46249 7.01889 56.0044 0 0 1 -0.0148657 0.0168524 0.016107 10.8328 -12.194 8.55952 
10332 2 9 F 18.6 1.274 7.39194 3.32614 7.54821 7.39194 52.046 56.3304 0 1 1 0.00327195 -0.00573223 0.00493319 -10.1568 0.661761 -14.7426 
14898 2 16 D 0.4 -2.0238 4.63121 2.42396 7.43504 4.63121 51.1439 56.2173 0 1 1 0.00115945 -0.000390882 0.00144228 0.355206 -0.0440605 -3.49377 
5990 1 2 C 11.61 2.6898 6.92149 7.92564 7.38489 6.92149 7.92564 56.1671 0 0 1 -0.00710115 -0.00776294 0.00288489 -15.5472 2.7968 -55.2298 
12729 1 12 D 0.4 -2.5798 6.92529 7.93281 7.38745 6.92529 7.93281 56.1697 0 0 1 0.00169745 0.00197265 -0.00210614 3.89872 2.80083 -4.91983 
12289 1 13 D 0.4 -2.3022 8.08534 3.46474 1.9344 -40.6939 52.1846 50.7166 -1 1 1 0.000400549 0.00146632 0.0024576 -0.766461 3.0534 -0.542582 
3825 1 1 O 15.6 1.4447 0.684213 5.76484 2.58136 49.4635 103.205 51.3636 1 2 1 -0.00143191 0.00164651 -0.0025371 17.5644 2.66917 -5.68621 
3838 1 4 H 1.008 0.03 2.28018 2.06378 1.55197 51.0595 99.5036 50.3342 1 2 1 -0.0111762 0.0256592 0.022293 5.08529 -5.65176 -5.50852 
14901 2 18 D 0.4 -1.3442 7.40391 3.32489 7.55351 7.40391 52.0448 56.3357 0 1 1 0.00191769 0.00136667 -0.00221123 -1.24875 -0.843781 -2.37052 
4820 1 3 C 11.61 2.4422 8.08758 3.47017 1.93903 -40.6917 52.1901 50.7212 -1 1 1 0.00363245 0.00463271 0.00350899 -19.9879 34.8331 -27.2856 
5998 1 4 H 1.008 0.03 7.59833 8.74716 7.56444 7.59833 8.74716 56.3466 0 0 1 -0.0120179 0.0250424 0.00871369 7.49933 0.0558748 9.64834 
5987 1 3 C 11.61 2.4422 4.62697 8.92891 4.60858 4.62697 8.92891 53.3908 0 0 1 -0.00587474 0.00420308 0.000735218 -49.3201 -38.911 4.01339 
12726 1 13 D 0.4 -2.3022 4.63635 8.93508 4.60518 4.63635 8.93508 53.3874 0 0 1 0.00103454 0.00154949 -0.00227672 2.13478 -3.11396 -2.45438 
5993 1 4 H 1.008 0.03 3.49408 8.85516 4.56759 3.49408 8.85516 53.3498 0 0 1 0.023005 -0.0221959 -0.00988228 30.7662 6.25213 -9.52115 
10135 2 7 O 15.6 1.6345 1.44506 10.9632 1.38818 1.44506 59.6831 50.1704 0 1 1 -0.00291282 0.00594298 0.00624827 -24.0013 3.42117 -30.9147 
5994 1 4 H 1.008 0.03 4.87499 9.93008 4.84565 4.87499 9.93008 53.6279 0 0 1 -0.00933885 0.0143074 0.0022579 8.00512 20.994 -1.4799 
2973 1 4 H 1.008 0.03 6.25977 11.9749 2.33783 6.25977 11.9749 2.33783 0 0 0 0.00556172 0.008723 0.0134855 2.56123 7.04267 -3.01476 
7026 1 2 C 11.61 2.6898 0.915051 11.1276 6.0601 49.6943 -37.5923 103.625 1 -1 2 -0.00452909 -0.00755545 -0.00698317 -3.94013 -46.5155 -19.0567 
7025 1 1 O 15.6 1.4447 1.25572 11.1821 7.45272 50.035 -37.5378 105.017 1 -1 2 0.00418772 2.22314e-05 0.00296689 3.69936 -10.6567 -22.121 
5991 1 4 H 1.008 0.03 4.80882 10.0631 2.24096 4.80882 10.0631 51.0232 0 0 1 0.0109363 -0.00556359 -0.013271 8.49083 -8.46255 9.42159 
6000 1 4 H 1.008 0.03 5.67376 8.79265 1.49907 5.67376 8.79265 50.2813 0 0 1 -0.0266665 -0.017491 -0.00710752 10.8866 -9.86833 -13.5586 
7034 1 4 H 1.008 0.03 3.27153 10.4231 7.20822 52.0508 -38.2968 104.773 1 -1 2 0.0107478 0.0240986 0.0243822 -1.643 6.35157 -10.9767 
5986 1 2 C 11.61 2.6898 4.91149 8.96469 2.21707 4.91149 8.96469 50.9993 0 0 1 0.0059387 -0.00714589 -0.00619526 -48.7971 39.8956 -22.8833 
2989 1 4 H 1.008 0.03 3.71301 12.0455 4.82273 3.71301 12.0455 102.387 0 0 2 0.0037221 -0.0181664 0.0235537 16.2149 -24.2618 1.88057 
9100 1 4 H 1.008 0.03 7.53791 10.1701 4.95395 7.53791 58.8899 53.7362 0 1 1 -0.004401 -0.0235023 -0.016457 7.46626 4.72404 -1.18922 
12725 1 12 D 0.4 -2.5798 4.91508 8.96079 2.2135 4.91508 8.96079 50.9957 0 0 1 -0.000445818 0.000329388 -0.000509126 -0.467699 2.13978 -0.428811 
7032 1 4 H 1.008 0.03 1.75061 10.8105 5.40216 50.5299 -37.9094 102.967 1 -1 2 0.00147662 0.0167268 0.0184053 -2.51749 16.3226 10.9153 
9092 1 3 C 11.61 2.4422 8.0246 11.0841 5.32642 8.0246 59.804 54.1086 0 1 1 -0.00559202 -0.00288533 -0.00460784 23.9722 18.1743 29.191 
13891 1 13 D 0.4 -2.3022 8.02567 11.0933 5.32499 8.02567 59.8132 54.1072 0 1 1 -0.00168432 -8.42469e-06 0.00146614 7.73783 1.98003 3.16208 
13890 1 13 D 0.4 -2.3022 7.16975 11.6733 6.45724 7.16975 60.3932 55.2395 0 1 1 -6.4237e-05 0.000485067 -0.000772614 -2.01681 3.256 -6.12141 
13114 1 11 D 0.4 -1.8447 1.24669 11.1856 7.45215 50.026 -37.5343 105.017 1 -1 2 -0.000651763 -0.00169494 -0.000440263 4.49883 0.557714 4.20343 
2971 1 4 H 1.008 0.03 3.85247 12.1637 0.906447 3.85247 12.1637 0.906447 0 0 0 0.00759146 -0.0209024 -0.00261208 -22.0423 -12.2467 11.3796 
13115 1 12 D 0.4 -2.5798 0.908177 11.1396 6.06226 49.6875 -37.5803 103.627 1 -1 2 -0.00128738 0.000663022 0.00163699 3.46008 -2.92408 1.2896 
9097 1 4 H 1.008 0.03 6.13023 11.7665 6.04755 6.13023 60.4864 54.8298 0 1 1 -0.0211519 -0.00793627 -0.0027616 12.1888 6.44376 10.0925 
9091 1 3 C 11.61 2.4422 7.16133 11.6727 6.45284 7.16133 60.3926 55.235 0 1 1 0.00385555 0.00150662 0.00176604 -23.6007 -5.7135 -9.61387 
9099 1 4 H 1.008 0.03 8.09122 11.8324 4.53861 8.09122 60.5523 53.3208 0 1 1 0.0173939 -0.026293 0.0131352 -2.05967 -3.08086 -3.71527 
4730 1 4 H 1.008 0.03 8.68884 11.7754 2.37551 8.68884 109.215 2.37551 0 2 0 0.00816506 0.0269838 0.0103507 -6.66568 -2.55986 13.1152 
4727 1 4 H 1.008 0.03 7.52399 10.169 1.07922 7.52399 107.609 1.07922 0 2 0 0.0198819 0.00353498 0.0195842 -6.63356 1.60576 -4.76389 
9089 1 1 O 15.6 1.4447 7.60993 12.8189 7.1775 7.60993 61.5388 55.9597 0 1 1 -0.00353952 -0.00183714 -0.00265407 4.18407 -12.0316 12.3814 
14704 2 16 D 0.4 -2.0238 1.45243 10.9673 1.3895 1.45243 59.6872 50.1717 0 1 1 0.000512553 0.000648438 -0.000623572 -3.04016 0.251119 -2.90053 
13888 1 11 D 0.4 -1.8447 7.61033 12.8208 7.18456 7.61033 61.5407 55.9668 0 1 1 -0.00125526 0.000361007 0.000621723 2.84399 -0.792732 -4.9682 
9098 1 4 H 1.008 0.03 7.08536 10.9168 7.19472 7.08536 59.6367 55.9769 0 1 1 0.00338139 0.000350589 -0.00903262 -1.09993 -12.3384 10.5724 
10340 2 9 F 18.6 1.274 5.35191 4.98319 11.7664 5.35191 53.7031 60.5486 0 1 1 -0.00297045 -0.00258056 -0.0019545 -6.78529 -12.2158 21.12 
14909 2 18 D 0.4 -1.3442 5.35793 4.98241 11.7784 5.35793 53.7023 60.5606 0 1 1 -7.20081e-05 -0.00126742 -0.00121573 1.26996 0.10361 -5.04069 
538 1 4 H 1.008 0.03 4.83961 8.578 13.033 4.83961 8.578 61.8152 0 0 1 -0.00705742 -0.0124423 -0.0244111 3.36856 -4.87087 9.76991 
14907 2 17 D 0.4 -1.7782 5.7319 4.9365 10.5229 5.7319 53.6564 59.3051 0 1 1 0.00112271 0.00162875 0.00170617 -5.00144 1.68862 -2.87772 
10338 2 8 C 11.61 1.9173 5.72847 4.93482 10.5174 5.72847 53.6547 59.2996 0 1 1 0.00114932 -0.00200487 0.00588047 21.2605 29.6672 -9.6126 
10336 2 7 O 15.6 1.6345 3.36172 4.0749 9.83366 3.36172 52.7948 58.6159 0 1 1 0.00540793 -0.00498253 0.0063519 33.6745 22.0749 -17.2998 
14905 2 16 D 0.4 -2.0238 3.35587 4.08017 9.8397 3.35587 52.8001 58.6219 0 1 1 0.0001636 -0.00125147 -0.000792679 -2.1396 -1.5514 -0.331541 
14910 2 18 D 0.4 -1.3442 6.49075 3.85218 10.3268 6.49075 52.5721 59.109 0 1 1 -0.000255716 -0.00125151 -0.00147902 -1.03132 -0.600742 -1.30662 
10341 2 9 F 18.6 1.274 6.48062 3.85408 10.3195 6.48062 52.574 59.1018 0 1 1 -0.00459682 0.0031089 9.38152e-05 -13.5806 -1.15943 4.12287 
14908 2 18 D 0.4 -1.3442 6.58181 5.97206 10.4165 6.58181 54.692 59.1988 0 1 1 -0.00100699 -6.34097e-05 -0.000849186 1.96731 -5.83707 1.25825 
10339 2 9 F 18.6 1.274 6.57346 5.96761 10.4105 6.57346 54.6875 59.1927 0 1 1 -0.000481253 -0.00304293 -0.00108212 -16.03 -4.10439 -10.5353 
13353 1 12 D 0.4 -2.5798 8.55132 5.59291 12.2065 57.3306 54.3128 60.9887 1 1 1 -0.00196674 0.00129455 -4.97682e-06 -1.41962 0.0555646 1.8915 
7654 1 2 C 11.61 2.6898 8.54763 5.59588 12.2006 57.3269 54.3158 60.9828 1 1 1 0.00255766 0.00179139 -0.00288805 -13.1371 2.3087 -0.0793249 
10335 2 6 S 31.66 1.8199 4.29309 5.12098 9.3758 4.29309 53.8409 58.158 0 1 1 -0.00388883 0.00471439 0.00159786 1.55074 -63.3673 23.0163 
14904 2 15 D 0.4 -1.2271 4.29409 5.12431 9.38318 4.29409 53.8442 58.1654 0 1 1 0.000762221 -0.000929242 -0.00205729 -5.42727 -0.233041 -3.38875 
10337 2 7 O 15.6 1.6345 3.88594 6.44722 9.58358 3.88594 55.1671 58.3658 0 1 1 0.00534908 -0.00207249 -0.00433125 -7.31534 40.0655 13.1803 
14906 2 16 D 0.4 -2.0238 3.8825 6.45049 9.58523 3.8825 55.1704 58.3674 0 1 1 -0.00190144 -0.00142661 -0.000471082 -0.45598 1.667 0.622517 
8744 1 4 H 1.008 0.03 7.9972 1.87498 12.7469 56.7765 99.3148 61.5291 1 2 1 -0.0246434 0.00428359 -0.0260616 8.15571 -7.16356 9.6775 
7662 1 4 H 1.008 0.03 7.79142 4.77455 12.1445 56.5707 53.4944 60.9267 1 1 1 0.012675 0.00621868 -0.0206851 8.31657 18.384 4.46445 
3340 1 4 H 1.008 0.03 2.01055 0.730361 13.2135 -46.7687 0.730361 13.2135 -1 0 0 -0.00260881 0.0190799 0.00455101 -8.15814 17.2632 6.05319 
3342 1 4 H 1.008 0.03 3.84486 2.06956 13.4352 -44.9344 2.06956 13.4352 -1 0 0 -0.0131539 0.00847969 -0.0111748 1.96226 18.3036 -9.18087 
13352 1 11 D 0.4 -1.8447 8.60755 6.32872 13.413 57.3868 55.0486 62.1952 1 1 1 -0.00175586 0.00191707 0.000471753 1.78295 -1.58191 -0.791548 
7653 1 1 O 15.6 1.4447 8.60388 6.33044 13.4095 57.3832 55.0503 62.1917 1 1 1 -0.00342254 -0.00591605 -0.00572791 3.38193 -3.5115 13.7533 
1795 1 3 C 11.61 2.4422 1.48036 5.92326 12.6835 -96.0782 5.92326 12.6835 -2 0 0 -0.00141599 -0.0005814 -0.00749765 -27.2876 -3.75621 -5.60117 
3320 1 4 H 1.008 0.03 0.824953 3.87687 8.46725 49.6042 3.87687 -40.315 1 0 -1 -0.0227962 -0.00365268 0.0193298 4.93859 2.98549 6.63996 
1801 1 4 H 1.008 0.03 2.42869 5.95013 12.0698 -95.1299 5.95013 12.0698 -2 0 0 0.00578853 0.027014 -0.0228908 -22.6404 2.04377 14.8955 
11154 1 13 D 0.4 -2.3022 1.47794 5.93273 12.6892 -96.0806 5.93273 12.6892 -2 0 0 0.000513213 0.00182679 -0.000258747 2.10825 -0.567799 1.25692 
14896 2 14 D 0.4 -2.0896 5.04688 4.95122 8.02125 5.04688 53.6711 56.8035 0 1 1 0.00187135 0.000602609 0.00225828 -1.41533 -4.80349 5.35244 
11733 1 12 D 0.4 -2.5798 4.50581 1.49479 12.789 -44.2735 1.49479 12.789 -1 0 0 -0.00199935 -0.00169389 0.00238318 -0.0294962 0.96275 -0.503087 
7659 1 4 H 1.008 0.03 7.05104 7.69148 13.1367 55.8303 56.4114 61.9189 1 1 1 -0.0202807 0.000673462 -0.00211371 -3.81787 6.33137 -26.6274 
539 1 4 H 1.008 0.03 5.02344 8.64199 10.58 5.02344 8.64199 59.3623 0 0 1 0.0111892 0.018584 0.0168919 2.05472 24.6397 3.76533 
3334 1 2 C 11.61 2.6898 4.49902 1.49864 12.7805 -44.2803 1.49864 12.7805 -1 0 0 -0.00262736 0.000481075 -0.00396079 21.7671 -9.39627 26.7148 
5997 1 4 H 1.008 0.03 6.24112 7.79851 8.18215 6.24112 7.79851 56.9644 0 0 1 -0.0123829 0.0138816 0.000858719 -19.1043 0.323339 15.0055 
10327 2 5 N 13.61 1.6042 5.05332 4.94823 8.02136 5.05332 53.6681 56.8036 0 1 1 -0.00109667 0.00334035 0.000863067 -17.076 -25.025 -28.0392 
3341 1 4 H 1.008 0.03 5.52508 1.58676 13.1925 -43.2542 1.58676 13.1925 -1 0 0 -0.0100969 0.00918975 -0.00039572 -13.2443 -5.96933 -4.33626 
13351 1 13 D 0.4 -2.3022 7.38643 6.9328 13.7977 56.1657 55.6527 62.5799 1 1 1 0.00120049 0.000453893 0.000615666 -0.671198 1.21652 -2.38141 
7652 1 3 C 11.61 2.4422 7.38071 6.93117 13.7937 56.16 55.6511 62.5759 1 1 1 0.00619714 -0.00725048 -0.0075301 -19.6798 0.249256 13.0535 
11152 1 11 D 0.4 -1.8447 0.725231 7.16333 12.6707 -96.8333 7.16333 12.6707 -2 0 0 -0.00231539 -0.000491558 -0.000621736 2.44411 0.248263 -0.774934 
7660 1 4 H 1.008 0.03 6.56921 6.18676 13.8821 55.3485 54.9067 62.6644 1 1 1 -0.000979337 -0.0174814 -0.00699152 9.4343 3.87782 -4.33037 
7661 1 4 H 1.008 0.03 8.44926 6.33313 11.4051 57.2285 55.053 60.1873 1 1 1 0.0161288 0.00879979 0.00339473 -3.6774 -4.69784 -4.45025 
1064 1 4 H 1.008 0.03 8.64478 4.32397 9.57814 106.203 53.0439 58.3604 2 1 1 -0.0205247 0.0186254 0.00776179 10.9021 -15.0662 -2.61511 
1802 1 4 H 1.008 0.03 0.723364 5.2234 12.2093 -96.8352 5.2234 12.2093 -2 0 0 -0.0174366 0.00194177 0.0152622 31.0464 7.05005 10.1992 
3343 1 4 H 1.008 0.03 4.60026 1.78594 11.7524 -44.179 1.78594 11.7524 -1 0 0 0.000195645 0.00313209 0.0227934 -3.89303 15.029 -6.67535 
1796 1 3 C 11.61 2.4422 1.70658 5.42854 14.1564 -95.852 5.42854 14.1564 -2 0 0 -0.00158726 -0.00460009 -0.000287699 10.6077 37.9754 -14.1269 
1793 1 1 O 15.6 1.4447 0.731054 7.15776 12.6689 -96.8275 7.15776 12.6689 -2 0 0 0.00410186 0.0035233 0.00651999 9.43983 -14.2702 -19.7812 
537 1 4 H 1.008 0.03 3.32999 8.57646 12.1919 3.32999 8.57646 60.9741 0 0 1 0.0234936 0.00651087 0.0125772 -4.21334 -5.66835 -9.33351 
11155 1 13 D 0.4 -2.3022 1.70982 5.43969 14.1546 -95.8488 5.43969 14.1546 -2 0 0 0.00150603 0.00124819 -0.0010926 2.43171 0.807995 -0.0302243 
11723 1 12 D 0.4 -2.5798 0.931714 2.84785 8.15646 49.711 2.84785 -40.6257 1 0 -1 -0.000883133 0.000132783 0.000811921 2.07081 -0.519183 -2.93384 
7036 1 4 H 1.008 0.03 2.73069 8.20735 8.38678 51.51 -40.5126 105.951 1 -1 2 0.0126785 0.00926745 0.00486423 20.0867 8.02408 12.1403 
1803 1 4 H 1.008 0.03 2.35686 4.58747 14.0114 -95.2017 4.58747 14.0114 -2 0 0 -0.0261447 0.0268987 -0.0107001 2.13568 -15.8949 11.7063 
3338 1 4 H 1.008 0.03 3.00806 1.17412 10.6411 -45.7712 1.17412 10.6411 -1 0 0 -0.0151737 -0.0112518 -0.0141521 -3.86733 7.90294 8.36145 
7035 1 4 H 1.008 0.03 1.11901 8.71517 8.57214 49.8983 -40.0047 106.137 1 -1 2 -0.0114054 0.0221594 0.00490384 -1.6121 2.27126 -9.76668 
3319 1 4 H 1.008 0.03 0.712855 2.12567 8.96604 49.4921 2.12567 -39.8162 1 0 -1 0.0186667 0.0111077 -0.0115792 -5.84135 14.2793 -9.08548 
4871 1 4 H 1.008 0.03 6.45322 3.36142 14.4772 6.45322 52.0813 63.2594 0 1 1 0.000169276 -0.00649189 -0.00681849 5.97483 -21.2502 -15.1526 
3328 1 4 H 1.008 0.03 1.98989 2.69294 7.98487 50.7692 2.69294 -40.7973 1 0 -1 0.0227669 -0.0135395 0.016522 14.4296 -2.97765 -8.56734 
1799 1 4 H 1.008 0.03 1.11895 7.85056 10.7332 -96.4396 7.85056 10.7332 -2 0 0 -0.0176696 -0.0133448 -0.0173776 -2.25971 -9.50526 -0.225501 
3314 1 2 C 11.61 2.6898 0.95049 2.8485 8.15651 49.7298 2.8485 -40.6257 1 0 -1 0.00669495 0.00758651 6.40891e-05 2.26121 -8.09831 24.4925 
540 1 4 H 1.008 0.03 6.08571 9.80771 11.2971 6.08571 9.80771 60.0793 0 0 1 -0.00521478 0.010862 -0.0225336 -12.2613 4.26435 11.7313 
531 1 3 C 11.61 2.4422 4.19405 9.18159 12.421 4.19405 9.18159 61.2032 0 0 1 -0.0058539 0.00321815 0.00693986 3.10336 26.6954 -3.31148 
10680 1 13 D 0.4 -2.3022 4.19637 9.19248 12.4207 4.19637 9.19248 61.2029 0 0 1 0.000780765 -0.00148742 -0.00161975 0.531139 1.4594 1.25232 
532 1 3 C 11.61 2.4422 5.00932 9.59751 11.1685 5.00932 9.59751 59.9507 0 0 1 -0.00107184 0.00279106 -0.00103528 -19.5115 -20.8879 -19.4849 
10681 1 13 D 0.4 -2.3022 5.00641 9.60595 11.174 5.00641 9.60595 59.9562 0 0 1 -0.000818012 -0.000659736 -0.00225294 -1.21079 -0.246747 -1.11471 
541 1 4 H 1.008 0.03 5.77745 10.5959 8.94009 5.77745 10.5959 57.7223 0 0 1 0.0250023 -0.00133391 0.0240971 5.01162 -17.6481 -12.3925 
1735 1 4 H 1.008 0.03 7.86305 10.1016 12.8609 7.86305 -38.6183 12.8609 0 -1 0 -0.00845276 0.00282185 0.0112937 -1.80507 -3.53585 1.70678 
543 1 4 H 1.008 0.03 4.4547 11.8213 8.90399 4.4547 11.8213 57.6862 0 0 1 -0.0214744 -0.00936955 0.0252702 20.5672 -6.19879 -0.0740353 
542 1 4 H 1.008 0.03 5.80439 11.958 10.0143 5.80439 11.958 58.7965 0 0 1 0.0203738 -0.0207615 -0.0196278 3.52249 0.742362 3.38038 
529 1 1 O 15.6 1.4447 3.71383 10.3499 13.1088 3.71383 10.3499 61.8911 0 0 1 -0.00536674 -0.00440041 -0.00490827 1.26288 -21.4626 1.48777 
10678 1 11 D 0.4 -1.8447 3.71619 10.3607 13.1134 3.71619 10.3607 61.8956 0 0 1 -0.00175057 0.00172988 0.00143187 0.250472 0.659499 -1.90721 
533 1 1 O 15.6 1.4447 4.2911 10.6331 10.4377 4.2911 10.6331 59.22 0 0 1 0.00474945 0.00415961 -0.00317801 22.6147 -28.9733 23.4226 
10682 1 11 D 0.4 -1.8447 4.28595 10.638 10.4366 4.28595 10.638 59.2188 0 0 1 -0.00234685 0.00104404 0.00229378 1.40152 -2.12412 0.64392 
2524 1 4 H 1.008 0.03 3.9181 12.6997 13.7723 3.9181 61.4196 13.7723 0 1 0 -0.0106378 0.0238725 0.0189996 -9.13502 -16.1576 -0.677385 
2523 1 4 H 1.008 0.03 5.26245 12.6459 12.5382 5.26245 61.3658 12.5382 0 1 0 -0.0144309 0.00744849 0.000101019 -15.0139 1.64752 14.3253 
10683 1 12 D 0.4 -2.5798 5.15802 11.223 9.52902 5.15802 11.223 58.3112 0 0 1 -0.00226496 -0.000423442 -0.000624178 2.31686 3.47842 1.82121 
534 1 2 C 11.61 2.6898 5.1645 11.2309 9.52572 5.1645 11.2309 58.3079 0 0 1 0.00016155 0.00441679 -0.000389225 -32.4028 40.4755 -5.66386 
1729 1 1 O 15.6 1.4447 7.83001 12.0886 12.216 7.83001 -36.6312 12.216 0 -1 0 0.00362878 0.00146249 0.00423867 12.8964 0.40632 -20.5157 
11128 1 11 D 0.4 -1.8447 7.82543 12.0914 12.2197 7.82543 -36.6285 12.2197 0 -1 0 -0.000547475 0.00160582 -0.00212569 -2.28434 -0.131675 3.99987 
1730 1 2 C 11.61 2.6898 8.47654 10.8155 12.3273 8.47654 -37.9044 12.3273 0 -1 0 0.00437041 -0.000388008 0.00110495 -5.05281 20.0893 -9.09335 
11129 1 12 D 0.4 -2.5798 8.46612 10.8253 12.3274 8.46612 -37.8946 12.3274 0 -1 0 0.000229234 0.00162965 0.00201432 1.01014 -2.02592 -0.634247 
1744 1 4 H 1.008 0.03 8.75938 10.4318 11.3521 8.75938 -38.2881 11.3521 0 -1 0 0.0107885 0.00380043 -0.0171491 -7.19369 -5.3091 -1.73103 
7033 1 4 H 1.008 0.03 2.65666 10.5332 8.77682 51.436 -38.1867 106.341 1 -1 2 0.0138795 -0.0206602 0.00294962 -8.14887 8.37043 -3.79356 
7028 1 3 C 11.61 2.4422 2.0059 8.83616 7.93658 50.7852 -39.8837 105.501 1 -1 2 -0.00511554 0.00487 -0.000718484 -24.8931 8.87216 7.49305 
13117 1 13 D 0.4 -2.3022 1.99776 8.84148 7.926 50.7771 -39.8784 105.49 1 -1 2 7.41301e-06 0.000396321 -0.000569104 -2.10982 -1.96741 0.871824 
530 1 2 C 11.61 2.6898 2.98131 9.97978 14.2786 2.98131 9.97978 63.0608 0 0 1 0.00176595 -0.00232201 -0.00655441 12.1627 -6.39897 5.38221 
536 1 4 H 1.008 0.03 2.09976 9.30826 14.1834 2.09976 9.30826 62.9656 0 0 1 -0.0116558 -0.0139466 0.00362432 4.77406 18.616 -7.76776 
10679 1 12 D 0.4 -2.5798 2.98731 9.99059 14.2784 2.98731 9.99059 63.0607 0 0 1 -0.00209301 0.000253425 0.00144059 2.21646 -0.384943 3.16458 
3279 1 4 H 1.008 0.03 0.995595 11.4752 10.5157 0.995595 60.1951 -38.2665 0 1 -1 0.0182279 0.00728816 0.015272 16.2424 -2.85571 -17.8121 
13116 1 13 D 0.4 -2.3022 2.34245 10.2983 7.75054 51.1217 -38.4216 105.315 1 -1 2 0.00106592 -0.00140915 0.000465678 -3.42647 -6.48503 5.41137 
7027 1 3 C 11.61 2.4422 2.34831 10.299 7.76203 51.1276 -38.4209 105.326 1 -1 2 0.00609924 -0.0078071 -0.00464457 11.8842 10.5717 30.9026 
4752 1 4 H 1.008 0.03 2.56885 2.67448 20.1796 -46.2104 2.67448 20.1796 -1 0 0 -0.00869765 0.00594145 -0.019202 9.75757 2.76879 -6.48148 
4738 1 2 C 11.61 2.6898 2.5744 3.63328 19.6442 -46.2049 3.63328 19.6442 -1 0 0 0.0064273 -0.00348893 0.0070741 -9.07978 17.9069 10.0381 
4744 1 4 H 1.008 0.03 1.54828 3.72979 19.242 -47.231 3.72979 19.242 -1 0 0 -0.0161365 0.0103889 -0.0077819 13.2608 -1.70288 -6.65079 
12257 1 12 D 0.4 -2.5798 2.57937 3.63549 19.653 -46.1999 3.63549 19.653 -1 0 0 0.00170474 0.00064587 0.00081632 -0.409095 -3.31855 -1.37666 
4739 1 3 C 11.61 2.4422 2.43378 5.94553 20.1065 -46.3455 5.94553 20.1065 -1 0 0 0.00353846 0.00587723 0.000546958 3.72336 13.6943 -11.4643 
12258 1 13 D 0.4 -2.3022 2.44366 5.9439 20.1125 -46.3356 5.9439 20.1125 -1 0 0 0.000547738 0.00222973 0.0019636 -1.74716 -1.14686 -3.20261 
6852 1 3 C 11.61 2.4422 6.20107 6.7096 19.6623 54.9804 55.4295 117.227 1 1 2 0.00160111 0.00595422 0.00110704 -4.75244 -38.843 39.7431 
13051 1 13 D 0.4 -2.3022 6.21367 6.71008 19.6546 54.993 55.43 117.219 1 1 2 0.00101684 0.00142479 -0.00167027 1.0758 -0.468979 2.59171 
13052 1 11 D 0.4 -1.8447 7.29134 5.8762 19.245 56.0706 54.5961 116.809 1 1 2 -0.00242289 0.00168608 -0.00125568 -5.90465 -0.808348 -0.319739 
6853 1 1 O 15.6 1.4447 7.28295 5.87577 19.2472 56.0622 54.5957 116.812 1 1 2 0.000952226 -0.00361719 0.00219213 -3.5352 -12.143 3.35576 
6854 1 2 C 11.61 2.6898 6.85715 4.50548 19.1242 55.6364 53.2254 116.689 1 1 2 -0.00778614 -0.00669278 0.00789097 12.7836 -10.1835 -6.78045 
13053 1 12 D 0.4 -2.5798 6.86105 4.5085 19.127 55.6403 53.2284 116.691 1 1 2 0.00224201 0.000577742 0.00062498 -0.67725 -0.121976 1.65661 
6863 1 4 H 1.008 0.03 6.65454 4.00072 20.0795 55.4338 52.7206 117.644 1 1 2 -0.0118749 -0.0106723 0.025442 7.86701 6.67987 -2.36683 
6862 1 4 H 1.008 0.03 5.91663 4.43247 18.6084 54.6959 53.1524 116.173 1 1 2 0.00634337 -0.0237373 -0.0112206 -7.93002 2.22767 -8.77445 
6861 1 4 H 1.008 0.03 7.56456 3.8813 18.5228 56.3439 52.6012 116.087 1 1 2 -0.00884228 0.0138628 0.0104014 -9.91645 14.6788 14.6598 
4743 1 4 H 1.008 0.03 3.38623 3.7384 18.8997 -45.3931 3.7384 18.8997 -1 0 0 0.0128223 -0.0124832 -0.00620664 -12.726 -10.6591 0.191415 
7658 1 4 H 1.008 0.03 7.96703 7.06591 15.8022 56.7463 55.7858 64.5844 1 1 1 -0.0232823 0.00912569 0.00689146 -0.0281054 -1.39902 3.76999 
4873 1 4 H 1.008 0.03 5.50722 0.9996 15.3915 5.50722 49.7195 64.1737 0 1 1 0.00313346 0.00642325 0.00319298 11.8416 -13.0987 -34.5681 
4746 1 4 H 1.008 0.03 3.10174 6.17358 19.2987 -45.6776 6.17358 19.2987 -1 0 0 -0.0141291 -0.0149788 -0.002193 9.78736 8.65434 -4.91794 
4737 1 1 O 15.6 1.4447 2.77261 4.68573 20.5823 -46.0067 4.68573 20.5823 -1 0 0 0.00219204 0.00401346 0.00641175 -6.26787 -27.509 12.5442 
13350 1 13 D 0.4 -2.3022 7.44251 7.70799 15.1022 56.2218 56.4279 63.8845 1 1 1 -0.000933682 -0.00197312 -0.00216309 -1.71778 2.31611 0.0130876 
7651 1 3 C 11.61 2.4422 7.43624 7.70899 15.1057 56.2155 56.4289 63.8879 1 1 1 0.00171009 0.0010087 0.00105033 7.60857 -26.7435 35.1004 
4872 1 4 H 1.008 0.03 6.46185 4.53074 15.5824 6.46185 53.2506 64.3646 0 1 1 -0.00234674 -0.0203412 -0.000897789 14.7996 18.2175 18.8496 
6859 1 4 H 1.008 0.03 5.49645 6.71062 18.8744 54.2757 55.4305 116.439 1 1 2 0.0263134 -0.0221315 -0.0111227 -18.5219 0.473436 -15.0327 
4865 1 1 O 15.6 1.4447 5.86139 2.70808 16.4997 5.86139 51.428 65.2819 0 1 1 -0.00203817 0.00677372 -0.000739483 19.6615 38.0972 -32.3057 
12304 1 11 D 0.4 -1.8447 5.86455 2.71555 16.5042 5.86455 51.4354 65.2864 0 1 1 0.000131106 -0.00221252 -0.00163263 -1.28977 -6.92184 -5.5382 
1806 1 4 H 1.008 0.03 2.89503 5.24073 16.6183 -94.6636 5.24073 16.6183 -2 0 0 0.0249533 -0.0113196 -0.0151563 -22.1759 13.9229 -11.8529 
1798 1 2 C 11.61 2.6898 2.24846 6.12402 16.3386 -95.3101 6.12402 16.3386 -2 0 0 -0.000457622 -0.00611968 -0.00538854 36.3566 -28.8163 20.9494 
11157 1 12 D 0.4 -2.5798 2.25636 6.13288 16.3402 -95.3022 6.13288 16.3402 -2 0 0 0.00236929 -0.00116886 -3.33442e-05 8.25123 -4.11551 0.151261 
1797 1 1 O 15.6 1.4447 2.38241 6.43091 14.9802 -95.1762 6.43091 14.9802 -2 0 0 0.00212332 0.00637342 -0.00568381 -6.80134 -6.75883 -26.5885 
11156 1 11 D 0.4 -1.8447 2.39006 6.4366 14.982 -95.1685 6.4366 14.982 -2 0 0 -0.0024124 -0.000429827 0.00108506 -0.399498 0.0817639 -0.591365 
1805 1 4 H 1.008 0.03 2.57546 6.83247 17.0774 -94.9831 6.83247 17.0774 -2 0 0 -0.00390078 -0.01667 0.0263772 5.5251 19.0834 -6.95125 