ITEM: TIMESTEP
5000
ITEM: NUMBER OF ATOMS
15015
ITEM: BOX BOUNDS pp pp pp
6.5785501639275878e-01 4.9437144983605364e+01
6.4305158407256258e-01 4.9362948415933445e+01
6.5689452945985138e-01 4.9439105470539751e+01
ITEM: ATOMS id mol type element mass q x y z xu yu zu ix iy iz vx vy vz fx fy fz 
14897 2 15 D 0.4 -1.2271 8.66118 3.49691 5.93382 8.66118 52.2168 54.716 0 1 1 0.00574869 0.00153882 -0.00125503 3.64027 2.4333 1.76391 
10328 2 6 S 31.66 1.8199 8.66001 3.50201 5.93694 8.66001 52.2219 54.7192 0 1 1 0.00443704 0.000308556 0.000641534 0.61052 0.141449 34.9918 
2971 1 4 H 1.008 0.03 2.70716 11.3208 1.22082 2.70716 11.3208 1.22082 0 0 0 0.0273363 -0.0108225 0.021226 -22.1234 -0.563101 -3.55231 
7039 1 4 H 1.008 0.03 3.27565 6.93077 6.61016 52.0549 -41.7891 104.175 1 -1 2 0.0251704 -0.0106438 -0.0123753 11.5194 -11.7482 14.9413 
3321 1 4 H 1.008 0.03 0.809417 3.93028 5.77159 49.5887 3.93028 -43.0106 1 0 -1 0.0144179 0.0123357 0.00488025 -17.8925 -14.307 6.63751 
5985 1 1 O 15.6 1.4447 8.7574 9.48258 3.94269 8.7574 9.48258 52.7249 0 0 1 -0.00191793 -0.000761379 0.00220856 23.1973 -17.3592 34.3508 
2973 1 4 H 1.008 0.03 6.04768 10.523 0.723098 6.04768 10.523 0.723098 0 0 0 -0.00342939 0.0106378 -0.00245386 3.07353 -5.94135 6.47255 
3325 1 4 H 1.008 0.03 2.15687 1.06619 3.68798 50.9362 1.06619 -45.0942 1 0 -1 -0.014422 -0.016144 0.00590223 18.6122 -20.3473 5.054 
10336 2 7 O 15.6 1.6345 6.53365 6.11981 6.77046 6.53365 54.8397 55.5527 0 1 1 0.000684567 0.00182664 0.00228278 24.0489 -22.459 31.4622 
3838 1 4 H 1.008 0.03 5.18907 2.32017 4.41469 53.9684 99.76 53.1969 1 2 1 0.01635 0.00632173 0.0367664 10.4755 -28.7944 53.0189 
3837 1 4 H 1.008 0.03 4.85158 2.04646 2.77396 53.6309 99.4862 51.5562 1 2 1 -0.0294445 0.0222155 0.00455646 1.40673 10.0789 10.9521 
11917 1 13 D 0.4 -2.3022 4.7069 4.84335 4.47687 53.4862 102.283 53.2591 1 2 1 -0.00209289 0.000298865 -0.00204855 -0.39179 1.54178 0.386414 
3828 1 3 C 11.61 2.4422 4.72037 4.84814 4.48556 53.4997 102.288 53.2678 1 2 1 -0.000698341 0.00160197 -0.00190678 14.5589 11.12 -12.3371 
14905 2 16 D 0.4 -2.0238 6.52984 6.12138 6.77037 6.52984 54.8413 55.5526 0 1 1 0.00108201 0.00248057 0.00235636 1.9127 1.11862 1.30876 
11916 1 13 D 0.4 -2.3022 3.97095 6.1175 4.21548 52.7502 103.557 52.9977 1 2 1 0.000186678 0.00268237 -0.00254751 -0.422878 3.0381 -1.60753 
3833 1 4 H 1.008 0.03 4.45588 7.01978 4.82158 53.2352 104.46 53.6038 1 2 1 0.0233209 -0.00209401 0.00638841 -25.9369 -47.6474 -27.06 
3835 1 4 H 1.008 0.03 4.66838 4.54535 5.49923 53.4477 101.985 54.2814 1 2 1 -0.00454568 0.010671 -0.00892862 -8.05209 -7.93326 18.9436 
3827 1 3 C 11.61 2.4422 3.97621 6.12615 4.22165 52.7555 103.566 53.0039 1 2 1 -0.000800163 0.00235861 -0.00387115 -0.724748 49.4117 22.0212 
3839 1 4 H 1.008 0.03 6.15523 3.1117 3.17885 54.9345 100.551 51.9611 1 2 1 -0.0253683 0.0142609 0.0170964 7.28275 2.73129 5.36686 
11593 1 13 D 0.4 -2.3022 3.63083 11.8056 0.970584 3.63083 11.8056 0.970584 0 0 0 0.00487924 0.00428044 0.00822332 -1.24508 -0.312169 0.210516 
3832 1 4 H 1.008 0.03 1.81726 5.06752 2.81577 50.5965 102.507 51.598 1 2 1 -0.0129676 -0.0325086 0.0119008 9.56321 -4.55493 -19.0378 
6000 1 4 H 1.008 0.03 8.61111 10.5926 2.33362 8.61111 10.5926 51.1158 0 0 1 0.0337172 -0.0146526 -0.00419284 -8.93108 -9.42485 -0.679514 
3326 1 4 H 1.008 0.03 1.97292 2.75858 4.14599 50.7522 2.75858 -44.6362 1 0 -1 -0.032397 0.00844718 -0.0199965 12.5499 8.11794 11.4623 
7030 1 2 C 11.61 2.6898 2.51621 7.55293 7.0288 51.2955 -41.167 104.593 1 -1 2 -0.00381998 0.00230323 -0.000202409 -34.9513 -13.5547 -16.859 
3327 1 4 H 1.008 0.03 1.33809 2.16381 2.64323 50.1174 2.16381 -46.139 1 0 -1 0.00798015 0.0124675 -0.0171278 3.15541 -3.92124 20.5384 
7026 1 2 C 11.61 2.6898 1.00449 9.72757 3.53776 49.7838 -38.9923 101.102 1 -1 2 0.000577453 -0.00303213 0.00280414 -37.3028 -19.5936 -23.4968 
13116 1 13 D 0.4 -2.3022 1.94563 10.8378 5.39749 50.7249 -37.8821 102.962 1 -1 2 -0.00102065 -0.00962663 -0.00314648 1.69417 -1.6926 2.84239 
10327 2 5 N 13.61 1.6042 7.69828 3.82898 7.16244 7.69828 52.5489 55.9447 0 1 1 0.00139499 -0.00229322 -0.00447928 -0.505194 -1.12604 1.58841 
3318 1 2 C 11.61 2.6898 1.51755 1.89698 3.71561 50.2968 1.89698 -45.0666 1 0 -1 0.00735342 -0.00374824 0.00582328 -30.7608 25.0658 -38.5523 
3836 1 4 H 1.008 0.03 5.77141 5.13898 4.34571 54.5507 102.579 53.1279 1 2 1 0.0021633 0.019866 0.0156053 -3.19298 -11.3918 -6.6056 
14898 2 16 D 0.4 -2.0238 8.20252 2.49449 5.00269 8.20252 51.2144 53.7849 0 1 1 0.00257034 0.00422484 0.00333558 1.29315 1.36285 0.687519 
2972 1 4 H 1.008 0.03 4.13562 11.5982 1.89723 4.13562 11.5982 1.89723 0 0 0 0.0100091 -0.0254862 0.0251031 10.0602 13.1651 7.67226 
7025 1 1 O 15.6 1.4447 0.88001 10.7697 4.46761 49.6593 -37.9502 102.032 1 -1 2 -0.00653146 -0.000848166 0.00295045 9.14552 4.75997 -2.33737 
13115 1 12 D 0.4 -2.5798 1.0005 9.73765 3.5374 49.7798 -38.9823 101.102 1 -1 2 0.00117497 -0.00304687 0.00330276 -0.242921 -0.199099 -0.102024 
9098 1 4 H 1.008 0.03 8.39301 12.5313 6.62431 8.39301 61.2512 55.4065 0 1 1 -0.00434738 0.015685 0.0223834 -3.09433 -12.0239 4.24868 
10329 2 7 O 15.6 1.6345 8.20413 2.50006 5.00499 8.20413 51.22 53.7872 0 1 1 0.00305129 0.00102003 0.00321652 -4.01008 4.91668 -4.26765 
5991 1 4 H 1.008 0.03 7.04705 10.2249 3.07094 7.04705 10.2249 51.8532 0 0 1 -0.00372487 0.00531336 0.0157145 3.79478 -7.8364 -0.149377 
3825 1 1 O 15.6 1.4447 2.56322 5.9441 4.58091 51.3425 103.384 53.3631 1 2 1 0.0023009 -0.000861303 0.00706906 21.6133 0.917704 -15.6982 
7029 1 1 O 15.6 1.4447 2.40528 8.51518 6.0167 51.1846 -40.2047 103.581 1 -1 2 -0.000666349 0.00297829 -0.00325201 -11.71 39.9048 -5.45264 
7033 1 4 H 1.008 0.03 1.78624 11.8225 5.85814 50.5655 -36.8974 103.423 1 -1 2 0.000973499 0.00381289 -0.0227379 4.79958 -4.04443 2.14857 
2964 1 3 C 11.61 2.4422 3.62199 11.8028 0.972651 3.62199 11.8028 0.972651 0 0 0 0.00474967 0.00330407 0.00497142 -2.48262 -24.3952 -0.526678 
7035 1 4 H 1.008 0.03 0.833012 9.80094 6.73346 49.6123 -38.919 104.298 1 -1 2 -0.00955258 -0.022764 -0.00403113 20.5367 -7.54913 6.63755 
5992 1 4 H 1.008 0.03 7.9541 8.92814 2.17271 7.9541 8.92814 50.9549 0 0 1 0.00806166 0.0342895 0.0123734 -5.07288 1.76501 -2.00383 
11727 1 12 D 0.4 -2.5798 1.51232 1.88437 3.71254 50.2916 1.88437 -45.0697 1 0 -1 0.00709744 -0.00432108 0.00734386 -1.94053 0.666849 -0.869013 
5986 1 2 C 11.61 2.6898 8.02981 9.79288 2.83114 8.02981 9.79288 51.6134 0 0 1 0.00115197 -0.00406824 -0.00378085 -10.5887 5.2215 -23.4993 
13118 1 11 D 0.4 -1.8447 2.40376 8.52012 6.0159 51.183 -40.1998 103.58 1 -1 2 -0.00183975 0.00376575 -0.0032101 -0.877519 0.590847 1.89345 
7037 1 4 H 1.008 0.03 1.57933 6.9238 7.07287 50.3586 -41.7961 104.637 1 -1 2 -0.00302685 0.00796308 0.00433436 22.52 17.8276 3.76238 
7034 1 4 H 1.008 0.03 2.9506 10.8671 5.01685 51.7299 -37.8528 102.581 1 -1 2 -0.0152339 0.015087 -0.015826 9.10155 2.10574 -16.251 
11915 1 12 D 0.4 -2.5798 1.66203 5.89873 3.47448 50.4413 103.339 52.2567 1 2 1 -0.00162564 0.00702916 -0.00127672 -0.18215 -5.71001 -0.100102 
11919 1 12 D 0.4 -2.5798 5.17056 2.78807 3.52652 53.9498 100.228 52.3087 1 2 1 -0.000734147 -0.00192759 0.00181511 -2.63285 0.937131 -3.5605 
13114 1 11 D 0.4 -1.8447 0.874541 10.7759 4.46683 49.6538 -37.944 102.031 1 -1 2 -0.00562969 0.000621796 0.0050564 0.137957 0.984048 2.60042 
13119 1 12 D 0.4 -2.5798 2.51267 7.56288 7.039 51.292 -41.157 104.603 1 -1 2 -0.00463439 0.00043554 -0.00298928 0.277792 -1.55473 1.302 
7032 1 4 H 1.008 0.03 1.99546 9.44785 3.22294 50.7748 -39.2721 100.787 1 -1 2 0.0136961 -0.00435318 0.0012912 11.307 4.29886 -2.12834 
3830 1 2 C 11.61 2.6898 5.18186 2.79141 3.52956 53.9611 100.231 52.3118 1 2 1 -0.000655839 -0.00106089 0.00172533 -22.8061 10.7985 -66.0917 
3826 1 2 C 11.61 2.6898 1.66711 5.89402 3.47224 50.4464 103.334 52.2545 1 2 1 -0.00233545 0.00191503 -0.000336674 -16.5628 20.9468 30.784 
3829 1 1 O 15.6 1.4447 4.24033 3.85497 3.59212 53.0196 101.295 52.3743 1 2 1 -0.00335988 -0.00715664 0.00164147 14.6897 -5.49602 -4.44657 
3834 1 4 H 1.008 0.03 4.20655 6.40638 3.17894 52.9858 103.846 51.9611 1 2 1 0.0394642 0.00959918 0.00519753 -15.3604 -1.61123 5.33231 
13117 1 13 D 0.4 -2.3022 1.90754 9.81865 6.44954 50.6868 -38.9012 104.014 1 -1 2 -0.00366998 -0.0024478 0.0075732 -0.972995 -2.12908 2.44671 
14896 2 14 D 0.4 -2.0896 7.70132 3.83243 7.16045 7.70132 52.5523 55.9427 0 1 1 0.000697507 -0.00189689 -0.0046104 -4.45724 -1.24453 0.274227 
11918 1 11 D 0.4 -1.8447 4.23269 3.84964 3.58543 53.012 101.289 52.3676 1 2 1 -0.0032737 -0.00752305 0.000637222 0.825168 2.50899 1.13065 
7028 1 3 C 11.61 2.4422 1.91356 9.81821 6.45328 50.6929 -38.9017 104.018 1 -1 2 -0.00379153 -0.00152516 0.00591136 -6.25835 -37.9224 37.3114 
11914 1 11 D 0.4 -1.8447 2.55756 5.94028 4.58461 51.3369 103.38 53.3668 1 2 1 0.00342029 -0.00349931 0.00807371 1.46876 0.376613 -3.29883 
12725 1 12 D 0.4 -2.5798 8.02921 9.78541 2.82622 8.02921 9.78541 51.6084 0 0 1 -0.0010907 -0.00159429 -0.00376786 -0.348908 12.7213 0.234532 
5987 1 3 C 11.61 2.4422 8.38298 8.30351 4.69989 8.38298 8.30351 53.4821 0 0 1 -0.00702239 0.00290318 -0.00046259 40.6507 -3.31822 -17.7739 
12726 1 13 D 0.4 -2.3022 8.38664 8.31507 4.69468 8.38664 8.31507 53.4769 0 0 1 -0.00700034 0.00310403 -0.000786057 -2.44376 -0.4301 -1.61541 
5993 1 4 H 1.008 0.03 8.57084 7.28696 4.27275 8.57084 7.28696 53.055 0 0 1 0.00119518 -8.78794e-05 9.8873e-05 -0.0609256 23.6287 -6.31134 
3840 1 4 H 1.008 0.03 1.44725 6.8818 3.0644 50.2265 104.322 51.8466 1 2 1 -0.00033301 -0.00945039 -0.0265357 15.1582 -4.59632 -14.3283 
5994 1 4 H 1.008 0.03 7.37391 8.33606 4.89218 7.37391 8.33606 53.6744 0 0 1 -0.00808072 -0.0235281 0.0113132 -41.936 2.2113 10.629 
7027 1 3 C 11.61 2.4422 1.95339 10.8413 5.40062 50.7327 -37.8786 102.965 1 -1 2 -0.00178844 -0.0109618 -0.00231274 -7.55996 31.7756 -10.9749 
2989 1 4 H 1.008 0.03 4.843 12.0488 4.22385 4.843 12.0488 101.788 0 0 2 -0.00548724 0.0294449 0.0140105 -11.0623 -0.958467 12.2843 
7036 1 4 H 1.008 0.03 2.55699 10.1223 7.32697 51.3363 -38.5976 104.891 1 -1 2 -0.00139805 0.014149 0.0288022 -16.9805 -2.08377 -19.2734 
4821 1 1 O 15.6 1.4447 8.52985 3.71604 0.685933 -40.2494 52.4359 49.4681 -1 1 1 0.00131854 -0.00705811 7.58107e-05 -15.1889 11.1952 -26.0037 
12290 1 11 D 0.4 -1.8447 8.53355 3.71501 0.686185 -40.2457 52.4349 49.4684 -1 1 1 0.00481153 -0.00873502 0.000158303 -5.84208 -4.30676 5.91357 
3344 1 4 H 1.008 0.03 2.25106 0.770868 6.45989 -46.5282 0.770868 6.45989 -1 0 0 -0.00159393 -0.0243023 0.0212032 3.38815 -21.052 -13.3973 
3831 1 4 H 1.008 0.03 0.674777 5.70353 3.85974 49.4541 103.143 52.642 1 2 1 0.0168813 0.000354656 -0.00119807 -1.5824 -6.57073 7.14729 
12724 1 11 D 0.4 -1.8447 8.76016 9.48864 3.93652 8.76016 9.48864 52.7187 0 0 1 0.000215758 -0.00172577 0.00345891 0.110305 -5.60642 -1.63111 
12728 1 11 D 0.4 -1.8447 8.77707 9.4701 6.77242 8.77707 9.4701 55.5546 0 0 1 -0.00521486 -0.00135294 -0.000156226 1.24953 0.223457 -2.57621 
5989 1 1 O 15.6 1.4447 8.78145 9.46437 6.76864 8.78145 9.46437 55.5508 0 0 1 -0.00361658 -0.00191079 -0.000587359 3.87254 9.90599 15.4152 
280 1 4 H 1.008 0.03 3.68518 5.67229 0.687711 101.244 103.112 98.2521 2 2 2 0.00273099 0.0298834 0.01354 -7.79089 1.88783 7.90068 
10340 2 9 F 18.6 1.274 4.75844 3.9514 7.83905 4.75844 52.6713 56.6213 0 1 1 0.00210232 -0.00199477 -0.00854393 18.8764 9.50186 -3.28951 
14909 2 18 D 0.4 -1.3442 4.75192 3.94416 7.84193 4.75192 52.6641 56.6241 0 1 1 0.00218567 -0.00324764 -0.00809105 0.57389 2.98476 0.343465 
538 1 4 H 1.008 0.03 5.29207 7.71626 10.2145 5.29207 7.71626 58.9967 0 0 1 -0.0155448 0.0141259 0.0182637 4.2432 20.4375 -4.33275 
14907 2 17 D 0.4 -1.7782 5.67841 4.59188 8.58166 5.67841 53.3118 57.3639 0 1 1 0.00531745 0.00132762 0.000222778 4.00837 -5.16843 2.66225 
10338 2 8 C 11.61 1.9173 5.67952 4.58837 8.58044 5.67952 53.3083 57.3626 0 1 1 0.005424 -0.00263641 0.00091543 -32.8132 -3.43385 36.2308 
12305 1 12 D 0.4 -2.5798 7.07521 2.79169 12.2076 7.07521 51.5116 60.9898 0 1 1 -0.000558216 -0.00841867 -0.00729382 3.19537 -2.39181 0.444655 
3339 1 4 H 1.008 0.03 3.87361 1.07916 9.99873 -44.9057 1.07916 9.99873 -1 0 0 0.00322955 -0.0374621 -0.00189609 -8.20735 -2.2607 13.271 
14910 2 18 D 0.4 -1.3442 6.06473 3.71046 9.49105 6.06473 52.4304 58.2733 0 1 1 -0.00883633 -0.00104881 0.00696714 0.224926 -1.67733 -0.618356 
10341 2 9 F 18.6 1.274 6.07015 3.71661 9.48253 6.07015 52.4365 58.2647 0 1 1 -0.00900581 -0.000167959 0.00790998 -1.29162 -6.89721 4.40006 
14908 2 18 D 0.4 -1.3442 5.01873 5.51164 9.30683 5.01873 54.2315 58.089 0 1 1 -0.000922668 0.000904763 0.00212906 0.36171 3.17558 -3.77043 
10339 2 9 F 18.6 1.274 5.0254 5.51194 9.29867 5.0254 54.2318 58.0809 0 1 1 -0.00010606 0.00117458 0.0013836 8.36166 -6.23303 -12.2823 
7662 1 4 H 1.008 0.03 6.71057 6.36983 11.4471 55.4899 55.0897 60.2293 1 1 1 -0.00907667 0.00153237 -0.00124516 0.458674 -3.61704 9.78218 
12304 1 11 D 0.4 -1.8447 7.40994 2.06227 13.3514 7.40994 50.7822 62.1336 0 1 1 0.00158391 -0.00208636 -0.00281046 -0.288036 -0.418767 1.31969 
10335 2 6 S 31.66 1.8199 7.14657 5.20907 7.7587 7.14657 53.929 56.5409 0 1 1 -0.00079718 0.00304784 -0.00298626 -5.04367 8.23866 -57.6142 
14904 2 15 D 0.4 -1.2271 7.14388 5.21017 7.76267 7.14388 53.9301 56.5449 0 1 1 -0.000887174 0.00200384 -0.00327461 -0.630279 3.00167 0.686666 
10337 2 7 O 15.6 1.6345 7.95168 5.73465 8.84513 7.95168 54.4545 57.6273 0 1 1 -0.00160883 0.0047739 0.00140372 -12.346 -0.777335 -8.8136 
14906 2 16 D 0.4 -2.0238 7.95336 5.73756 8.85332 7.95336 54.4575 57.6355 0 1 1 -0.00203265 0.0034527 -0.000231394 0.615215 0.416226 -1.67422 
541 1 4 H 1.008 0.03 7.49201 11.7046 8.95998 7.49201 11.7046 57.7422 0 0 1 -0.007774 -0.00376651 0.0113451 4.77624 2.0787 -1.46924 
1808 1 4 H 1.008 0.03 1.46072 4.84155 13.3719 -96.0979 4.84155 13.3719 -2 0 0 -0.0198781 0.000382651 -0.0056429 -10.8145 -7.28184 -2.48934 
3337 1 4 H 1.008 0.03 3.99035 1.62641 7.63029 -44.7889 1.62641 7.63029 -1 0 0 -0.00723111 0.00813904 -0.0102566 3.93237 -7.42574 5.00916 
544 1 4 H 1.008 0.03 2.91428 8.63327 12.8104 2.91428 8.63327 61.5926 0 0 1 -0.00562225 0.0268129 -0.00934147 7.27589 2.78681 -11.315 
14625 2 18 D 0.4 -1.3442 1.37866 11.9069 14.2075 1.37866 60.6268 14.2075 0 1 0 0.00283352 -0.00143186 0.00779885 -4.00996 2.0228 1.74086 
3340 1 4 H 1.008 0.03 5.59295 1.46946 9.4896 -43.1863 1.46946 9.4896 -1 0 0 0.0226904 0.0318498 -0.0132444 -45.26 -17.4065 -0.654141 
2522 1 4 H 1.008 0.03 4.27818 11.841 11.7978 4.27818 60.5609 11.7978 0 1 0 0.00766628 0.024855 -0.00742784 -9.8078 -1.90429 -14.9812 
11153 1 12 D 0.4 -2.5798 2.44834 4.87431 12.9155 -95.1102 4.87431 12.9155 -2 0 0 -0.00293159 0.00601443 0.00030936 -0.57789 1.09893 1.63843 
4872 1 4 H 1.008 0.03 7.20555 3.90271 12.1321 7.20555 52.6226 60.9143 0 1 1 -0.00379402 -0.00825703 0.00096675 -1.53749 -19.464 11.9493 
7654 1 2 C 11.61 2.6898 7.58807 6.89765 11.8312 56.3674 55.6175 60.6134 1 1 1 -0.00122615 -0.00204515 0.00237444 16.7296 1.57237 -48.4515 
542 1 4 H 1.008 0.03 7.00467 12.589 10.3975 7.00467 12.589 59.1797 0 0 1 -0.0193764 0.00727569 0.00806767 4.35678 4.76997 21.9101 
536 1 4 H 1.008 0.03 2.378 8.54042 11.1106 2.378 8.54042 59.8928 0 0 1 -0.0159594 -0.00627606 0.0116512 6.06437 0.779299 5.61473 
2526 1 4 H 1.008 0.03 7.88021 12.6231 14.5307 7.88021 61.343 14.5307 0 1 0 0.0170507 0.0240856 -0.0099073 15.8279 -7.75903 -10.317 
539 1 4 H 1.008 0.03 6.58923 9.51166 8.84752 6.58923 9.51166 57.6297 0 0 1 0.0355596 0.0371371 -0.0262856 -5.10596 -4.58505 7.18708 
1735 1 4 H 1.008 0.03 8.43629 9.65267 12.7554 8.43629 -39.0672 12.7554 0 -1 0 -0.000519051 -0.00964422 0.028413 -20.6585 -2.54938 21.1825 
4880 1 4 H 1.008 0.03 6.16889 2.46503 11.7397 6.16889 51.1849 60.5219 0 1 1 -0.0107779 -0.00285374 -0.00339563 -22.1764 6.50304 3.21146 
7661 1 4 H 1.008 0.03 7.59553 7.85823 11.2362 56.3748 56.5781 60.0185 1 1 1 0.000659179 -0.0136669 -0.0130182 4.15961 -23.6764 24.8551 
530 1 2 C 11.61 2.6898 3.23816 8.38492 11.7819 3.23816 8.38492 60.5641 0 0 1 -0.0111719 -0.00615948 0.00775604 -0.925161 -13.0756 -5.68003 
13351 1 13 D 0.4 -2.3022 6.4813 7.56392 13.7675 55.2606 56.2838 62.5498 1 1 1 0.0010978 0.00257607 -0.00155448 -0.484239 0.241199 -4.00636 
7652 1 3 C 11.61 2.4422 6.4681 7.56256 13.7634 55.2474 56.2825 62.5456 1 1 1 0.00114938 0.00340668 -0.00173935 -35.984 24.5875 18.811 
11152 1 11 D 0.4 -1.8447 3.14419 5.80739 13.7381 -94.4144 5.80739 13.7381 -2 0 0 0.00156427 -0.00334215 0.00237154 -0.837772 -0.778969 1.55081 
7660 1 4 H 1.008 0.03 5.70161 6.8664 13.5326 54.4809 55.5863 62.3148 1 1 1 0.00297898 -0.0041189 -0.0179898 -13.8223 -15.3659 -4.28785 
2516 1 3 C 11.61 2.4422 5.55616 12.1494 13.2695 5.55616 60.8693 13.2695 0 1 0 0.0021625 -0.00189535 -0.0016325 -2.47319 -62.1193 -15.9085 
535 1 4 H 1.008 0.03 3.4045 7.28256 11.7937 3.4045 7.28256 60.5759 0 0 1 -0.0315567 0.0106155 0.0167028 7.69064 20.3663 -4.7976 
4873 1 4 H 1.008 0.03 5.39761 2.31878 13.9784 5.39761 51.0387 62.7606 0 1 1 0.0247831 -0.0203034 -0.000574942 0.106653 -1.86486 0.772722 
7653 1 1 O 15.6 1.4447 7.65181 7.03878 13.2198 56.4311 55.7587 62.002 1 1 1 -0.00285007 -0.00305601 -0.00330762 5.45905 2.3209 8.3407 
10679 1 12 D 0.4 -2.5798 3.23773 8.39282 11.7766 3.23773 8.39282 60.5588 0 0 1 -0.0107913 -0.00682517 0.00926243 -2.50385 3.31945 0.875553 
1793 1 1 O 15.6 1.4447 3.13953 5.80145 13.7452 -94.419 5.80145 13.7452 -2 0 0 0.00186708 -0.00406795 0.00235828 9.552 -0.46549 4.24407 
537 1 4 H 1.008 0.03 4.22819 8.64983 9.30611 4.22819 8.64983 58.0883 0 0 1 0.0218449 -0.00822502 0.0170225 -10.9709 13.1421 -18.1297 
12306 1 13 D 0.4 -2.3022 6.4067 2.25364 14.403 6.4067 50.9735 63.1852 0 1 1 0.00941813 0.000922192 0.00349575 -0.783816 -1.62557 0.687643 
4867 1 3 C 11.61 2.4422 6.40143 2.25631 14.4062 6.40143 50.9762 63.1884 0 1 1 0.00900226 -0.00132478 0.00342689 15.1298 5.45212 -16.5489 
7659 1 4 H 1.008 0.03 6.03427 8.49355 13.3071 54.8136 57.2135 62.0893 1 1 1 -0.041007 -0.0249013 -0.00797159 22.9938 -12.9675 7.40161 
13353 1 12 D 0.4 -2.5798 7.58985 6.89785 11.8404 56.3691 55.6178 60.6226 1 1 1 -0.00230994 -0.00133188 0.00274758 3.96 1.90261 -6.35526 
1800 1 4 H 1.008 0.03 2.31666 5.14882 11.9024 -95.2419 5.14882 11.9024 -2 0 0 -0.00525687 0.00983172 0.00649232 4.22911 4.06844 -16.4591 
11425 1 13 D 0.4 -2.3022 5.5274 12.2079 13.3011 5.5274 60.9278 13.3011 0 1 0 0.000344578 -0.00246427 -0.00128817 0.348199 -4.28854 -1.57895 
13352 1 11 D 0.4 -1.8447 7.65565 7.03539 13.2176 56.4349 55.7553 61.9999 1 1 1 -0.00297183 -0.00218492 -0.00301307 5.47941 1.1888 1.74157 
4865 1 1 O 15.6 1.4447 7.40105 2.06241 13.3527 7.40105 50.7823 62.1349 0 1 1 0.0023508 -0.00183144 -0.00317942 -25.5717 11.3401 34.9968 
2523 1 4 H 1.008 0.03 6.39985 11.5738 12.8296 6.39985 60.2937 12.8296 0 1 0 0.0176636 -0.0225967 0.0123297 -10.796 6.12975 5.02131 
1799 1 4 H 1.008 0.03 2.92187 3.92142 13.0577 -94.6367 3.92142 13.0577 -2 0 0 -0.0258463 -0.0178208 -0.0293498 2.99562 -18.0556 -11.6938 
3278 1 4 H 1.008 0.03 1.74306 11.3668 8.95326 1.74306 60.0867 -39.8289 0 1 -1 0.00108359 -0.00747189 -0.0141098 -29.7392 -8.4271 33.3595 
540 1 4 H 1.008 0.03 6.8408 9.67259 10.5771 6.8408 9.67259 59.3593 0 0 1 -0.000992348 0.00941095 0.00548353 -7.15494 5.62218 -3.18067 
531 1 3 C 11.61 2.4422 4.95652 8.76887 10.0582 4.95652 8.76887 58.8404 0 0 1 -0.000316548 -0.00413758 0.00662205 -17.9684 -22.999 60.8215 
10680 1 13 D 0.4 -2.3022 4.95152 8.7777 10.0622 4.95152 8.7777 58.8444 0 0 1 0.000613995 -0.00357872 0.00631864 0.368061 0.308853 6.16578 
532 1 3 C 11.61 2.4422 6.07536 9.74592 9.79401 6.07536 9.74592 58.5762 0 0 1 -0.00299535 0.000957144 -0.00213547 30.3535 20.3174 -19.2956 
10681 1 13 D 0.4 -2.3022 6.06594 9.75043 9.80488 6.06594 9.75043 58.5871 0 0 1 -0.003661 0.00139298 -0.00177834 0.1445 0.0549169 0.0399267 
7038 1 4 H 1.008 0.03 2.82127 7.94493 7.98253 51.6006 -40.775 105.547 1 -1 2 0.0027852 0.0174178 0.00397969 -1.33846 -1.04217 6.33481 
2515 1 3 C 11.61 2.4422 4.71599 12.7364 12.2052 4.71599 61.4563 12.2052 0 1 0 -0.000770479 0.00180885 0.00743219 3.95568 -7.31516 -14.9436 
1794 1 2 C 11.61 2.6898 2.43995 4.86536 12.9222 -95.1186 4.86536 12.9222 -2 0 0 -0.00236143 0.00611775 -0.000702581 1.13622 17.3368 35.5102 
3277 1 4 H 1.008 0.03 0.974703 10.9104 10.6161 0.974703 59.6303 -38.1661 0 1 -1 0.00272586 0.0431651 0.0136865 1.88686 0.109866 -8.96544 
529 1 1 O 15.6 1.4447 4.35053 9.19756 11.3324 4.35053 9.19756 60.1146 0 0 1 0.00355211 0.00203398 -0.00439026 -0.364981 -18.2053 -16.4183 
10678 1 11 D 0.4 -1.8447 4.34871 9.20394 11.3386 4.34871 9.20394 60.1208 0 0 1 0.00345054 0.00277991 -0.00365439 1.20406 -0.949866 -0.91071 
533 1 1 O 15.6 1.4447 5.62785 11.1065 9.66271 5.62785 11.1065 58.4449 0 0 1 -0.000172526 0.00478487 -0.000372214 -2.41009 -9.5015 15.2635 
10682 1 11 D 0.4 -1.8447 5.62082 11.1117 9.66889 5.62082 11.1117 58.4511 0 0 1 0.000166519 0.00617802 -0.00154252 0.642146 1.21081 0.981234 
2524 1 4 H 1.008 0.03 4.84379 11.4423 13.7775 4.84379 60.1622 13.7775 0 1 0 0.0218762 0.00307759 0.00950942 24.323 8.754 -1.39672 
4871 1 4 H 1.008 0.03 7.70931 2.3312 11.4971 7.70931 51.0511 60.2793 0 1 1 0.00759484 0.00272474 0.0128554 18.2561 4.61168 -15.5751 
10683 1 12 D 0.4 -2.5798 6.64776 12.09 9.5406 6.64776 12.09 58.3228 0 0 1 -0.00140828 0.0039605 0.00440379 -0.176896 1.59375 -1.01845 
534 1 2 C 11.61 2.6898 6.65949 12.0883 9.53393 6.65949 12.0883 58.3161 0 0 1 -0.00208874 0.00314326 0.00498737 -28.4264 -18.8966 -44.062 
3332 1 3 C 11.61 2.4422 4.70409 0.731489 9.41548 -44.0752 0.731489 9.41548 -1 0 0 -0.00413063 -0.00754084 0.000141191 68.0982 25.1798 11.108 
11731 1 13 D 0.4 -2.3022 4.70019 0.722527 9.41454 -44.0791 0.722527 9.41454 -1 0 0 -0.00565589 -0.00756103 -0.000465512 2.94362 1.03865 1.14222 
7663 1 4 H 1.008 0.03 8.48112 6.31219 11.4679 57.2604 55.0321 60.2502 1 1 1 0.0193574 0.0162958 0.00846098 -21.4386 13.3159 13.5113 
10056 2 9 F 18.6 1.274 1.37455 11.9055 14.2111 1.37455 60.6254 14.2111 0 1 0 0.00337458 -0.000747121 0.00758653 12.2767 13.3363 24.1819 
2189 1 4 H 1.008 0.03 0.764934 9.04897 13.4157 0.764934 9.04897 62.1979 0 0 1 -0.0118197 -0.0212108 0.0111522 -10.4596 -12.2308 -7.30147 
4866 1 2 C 11.61 2.6898 7.07052 2.79338 12.2037 7.07052 51.5133 60.9859 0 1 1 -0.000859214 -0.00691127 -0.00610791 5.47 11.2008 -17.3627 
3328 1 4 H 1.008 0.03 0.915674 3.67794 8.5098 49.695 3.67794 -40.2724 1 0 -1 0.0080235 0.00792539 0.00615929 7.89234 23.8344 -9.35494 
11709 1 12 D 0.4 -2.5798 0.82534 11.4051 9.6499 0.82534 60.125 -39.1323 0 1 -1 0.00707993 0.000325999 0.00237248 -2.80623 3.2764 0.560624 
3270 1 2 C 11.61 2.6898 0.82179 11.4069 9.64493 0.82179 60.1268 -39.1373 0 1 -1 0.00525691 0.000647788 0.00254845 7.56728 25.2319 -34.0932 
11424 1 13 D 0.4 -2.3022 4.70634 12.7802 12.2603 4.70634 61.5001 12.2603 0 1 0 -0.00137643 0.00229532 0.00666081 1.21848 -2.34463 -1.29837 
543 1 4 H 1.008 0.03 6.12589 12.7939 8.8781 6.12589 12.7939 57.6603 0 0 1 0.00263946 0.00116525 -0.0112078 12.6903 4.52163 8.22062 
1903 1 4 H 1.008 0.03 4.21669 9.99201 21.2425 52.996 107.432 70.0247 1 2 1 0.0496104 2.84959e-06 0.0127612 0.29892 -36.7869 -3.2187 
1802 1 4 H 1.008 0.03 2.91848 4.3925 15.1735 -94.6401 4.3925 15.1735 -2 0 0 -0.0304445 -0.0128689 -0.00165966 -10.5591 -32.2943 15.1812 
10054 2 9 F 18.6 1.274 0.664843 11.4778 16.1731 0.664843 60.1977 16.1731 0 1 0 0.0003251 0.00147914 0.00567189 0.765142 13.6587 -4.6873 
5676 1 4 H 1.008 0.03 2.84331 1.50929 17.9846 2.84331 1.50929 17.9846 0 0 0 -0.0212794 0.0250184 -0.000880881 1.20227 12.2668 1.77699 
1113 1 4 H 1.008 0.03 8.19987 4.76317 20.4607 8.19987 53.4831 20.4607 0 1 0 -0.00495275 -0.00137963 -0.0190397 26.5664 2.9292 29.6888 
6852 1 3 C 11.61 2.4422 5.31093 5.25611 20.2098 54.0902 53.976 117.774 1 1 2 -0.0074199 -0.000505285 -0.00103462 -46.233 26.5742 20.268 
8933 1 1 O 15.6 1.4447 8.61532 12.1795 17.9591 57.3946 12.1795 -30.8231 1 0 -1 0.00101408 0.00226198 -0.00469414 13.3376 27.076 -0.685981 
13349 1 12 D 0.4 -2.5798 7.42686 8.93218 16.9817 56.2061 57.6521 65.7639 1 1 1 0.00323601 0.0103981 0.00591322 8.8535 -8.68819 3.34005 
13052 1 11 D 0.4 -1.8447 5.76067 5.5799 18.9716 54.54 54.2998 116.536 1 1 2 0.00344699 -0.00506656 0.0129522 3.44251 -0.227531 2.89992 
6853 1 1 O 15.6 1.4447 5.75967 5.58085 18.9765 54.539 54.3007 116.541 1 1 2 0.00242002 -0.000257114 0.00646802 32.1327 3.75207 -57.6995 
6854 1 2 C 11.61 2.6898 6.11159 4.46973 18.0958 54.8909 53.1896 115.66 1 1 2 -0.000338751 0.00410565 -0.0120821 3.89914 -5.28619 12.427 
13053 1 12 D 0.4 -2.5798 6.11212 4.46942 18.1006 54.8914 53.1893 115.665 1 1 2 -0.000232717 0.0102693 -0.017287 -0.664811 -3.00902 -9.37559 
6863 1 4 H 1.008 0.03 6.40638 3.49465 18.538 55.1857 52.2145 116.102 1 1 2 0.0125664 -0.0105402 -0.0104468 7.70768 20.1811 5.47979 
6862 1 4 H 1.008 0.03 5.21451 4.13752 17.6518 53.9938 52.8574 115.216 1 1 2 -0.00444201 0.000683259 0.00411586 -22.5486 -0.188993 -12.557 
6861 1 4 H 1.008 0.03 6.78099 4.69337 17.2343 55.5603 53.4133 114.799 1 1 2 -0.000235306 0.0110114 -0.000609849 -6.78829 4.78164 16.7049 
6860 1 4 H 1.008 0.03 5.94527 4.47556 20.4945 54.7246 53.1955 118.059 1 1 2 0.0157605 0.017629 0.00594958 5.98484 -27.6493 23.9544 
7658 1 4 H 1.008 0.03 6.62055 6.62159 15.699 55.3998 55.3415 64.4812 1 1 1 0.0254814 -0.00843336 -0.00727114 3.9947 4.54766 2.5704 
1796 1 3 C 11.61 2.4422 2.74027 6.29827 16.1437 -94.8183 6.29827 16.1437 -2 0 0 0.000191361 0.000941466 0.000209795 -19.4208 -36.8112 6.38003 
12307 1 13 D 0.4 -2.3022 6.4602 1.0333 15.3451 6.4602 49.7532 64.1273 0 1 1 0.00581724 0.00458931 -0.00101898 0.0537583 -1.94075 -0.948466 
13832 1 11 D 0.4 -1.8447 8.60921 12.1764 17.9532 57.3885 12.1764 -30.829 1 0 -1 0.000722399 0.00252583 -0.00512062 0.451866 -1.01647 2.34331 
7657 1 4 H 1.008 0.03 5.53103 7.95432 15.7352 54.3103 56.6742 64.5174 1 1 1 0.0108187 -0.0345198 0.0221072 -3.7964 8.16755 -3.44007 
7655 1 4 H 1.008 0.03 6.48105 9.43281 17.1138 55.2603 58.1527 65.896 1 1 1 -0.00437723 0.00646857 -0.00341934 -4.15718 1.75479 3.67865 
10053 2 8 C 11.61 1.9173 0.964956 12.4919 15.3593 0.964956 61.2118 15.3593 0 1 0 -0.00186626 -0.00545476 -0.000604654 47.1971 -33.8059 -10.4331 
11193 1 12 D 0.4 -2.5798 4.09071 11.0028 21.4099 52.87 108.443 70.1921 1 2 1 0.00469842 -0.00960202 -0.000628285 0.360098 1.62354 -1.77434 
7656 1 4 H 1.008 0.03 8.19007 9.59971 17.3728 56.9694 58.3196 66.155 1 1 1 -0.0179478 -0.00706177 0.00472462 5.08027 4.1665 -15.7097 
6851 1 3 C 11.61 2.4422 5.46884 6.52284 21.1397 54.2481 55.2427 118.704 1 1 2 0.00272063 0.00453167 -0.00785232 23.6493 -21.1925 -45.0309 
1806 1 4 H 1.008 0.03 2.26297 8.50568 17.5881 -95.2956 8.50568 17.5881 -2 0 0 -0.00467145 0.00151709 -0.0115923 -0.661551 -2.09235 10.3054 
1798 1 2 C 11.61 2.6898 2.31369 8.54106 16.5215 -95.2449 8.54106 16.5215 -2 0 0 -0.00420542 0.000475789 0.00613577 36.6954 30.2146 6.32082 
11157 1 12 D 0.4 -2.5798 2.31729 8.54763 16.5244 -95.2413 8.54763 16.5244 -2 0 0 -0.00648934 0.00369765 0.00787969 4.24869 -2.23019 3.77107 
11156 1 11 D 0.4 -1.8447 3.21941 7.57778 16.0699 -94.3392 7.57778 16.0699 -2 0 0 -0.00501335 -0.00129065 0.00570795 -0.428802 2.31858 -1.94399 
14623 2 18 D 0.4 -1.3442 0.66248 11.477 16.1703 0.66248 60.1969 16.1703 0 1 0 -0.000318104 0.00454799 0.0059189 1.77987 -1.9953 3.78106 
1805 1 4 H 1.008 0.03 2.82123 9.49121 16.289 -94.7374 9.49121 16.289 -2 0 0 0.0114211 -0.0121664 -0.00925638 -9.21625 -4.12373 1.72052 
13348 1 11 D 0.4 -1.8447 7.58543 8.47711 15.6425 56.3647 57.197 64.4247 1 1 1 0.000369319 -0.000913314 -0.00315866 -7.76368 4.67669 0.385308 
7833 1 4 H 1.008 0.03 1.24402 10.4652 21.0005 1.24402 -38.2547 -27.7817 0 -1 -1 0.026765 -0.0114993 -0.0199931 -4.73113 -1.53049 -8.47187 
6857 1 4 H 1.008 0.03 4.86929 7.33804 20.724 53.6486 56.0579 118.288 1 1 2 -0.0035838 -0.0177292 -0.0328696 1.58709 0.774261 4.17313 
13050 1 13 D 0.4 -2.3022 5.47894 6.52269 21.1292 54.2582 55.2426 118.694 1 1 2 0.00455204 0.00414367 -0.00864007 1.99282 1.62533 2.47546 
13833 1 12 D 0.4 -2.5798 7.87321 11.7267 19.0847 56.6525 11.7267 -29.6975 1 0 -1 -0.00825101 0.00417845 -0.00184717 -3.66938 -0.812429 -2.35951 
1797 1 1 O 15.6 1.4447 3.21317 7.5735 16.0691 -94.3454 7.5735 16.0691 -2 0 0 -0.00474142 -0.00279407 0.00346176 13.7501 17.8538 -25.5145 
8943 1 4 H 1.008 0.03 6.80472 11.4485 18.8918 55.584 11.4485 -29.8905 1 0 -1 -0.00283799 -0.0294426 0.00786957 26.351 -1.21911 -3.64204 
14622 2 17 D 0.4 -1.7782 0.978081 12.5011 15.3624 0.978081 61.221 15.3624 0 1 0 -0.0025918 -0.00496542 -0.000417409 -0.415887 -2.18289 -5.72281 
1803 1 4 H 1.008 0.03 2.99417 6.03589 17.1675 -94.5644 6.03589 17.1675 -2 0 0 -0.0108912 -0.0223337 -0.0223816 -0.662032 -11.9423 0.223498 
8941 1 4 H 1.008 0.03 7.79265 12.4941 19.9061 56.5719 12.4941 -28.8761 1 0 -1 0.0283362 0.0157463 0.0196217 4.217 -9.48595 -16.4681 
11155 1 13 D 0.4 -2.3022 2.74858 6.30572 16.1364 -94.81 6.30572 16.1364 -2 0 0 -0.000220216 0.00285822 0.000184306 -0.243725 0.913079 0.447379 
7832 1 4 H 1.008 0.03 0.777403 8.32419 19.0159 0.777403 -40.3957 -29.7663 0 -1 -1 0.00109686 -0.00426255 0.00423938 -20.925 4.44883 6.27466 
7649 1 1 O 15.6 1.4447 7.5772 8.47688 15.642 56.3565 57.1968 64.4242 1 1 1 -0.00358659 0.000810087 -0.00526574 1.88252 2.60107 15.0288 
4868 1 3 C 11.61 2.4422 6.45415 1.02963 15.3524 6.45415 49.7495 64.1346 0 1 1 0.00636583 0.00454867 -0.002126 5.68184 0.550121 -28.7728 
1807 1 4 H 1.008 0.03 1.35043 8.58225 16.1111 -96.2081 8.58225 16.1111 -2 0 0 -0.0153777 0.0121651 -0.0167298 -25.6195 -5.82994 -15.7461 
7651 1 3 C 11.61 2.4422 6.47757 7.63881 15.3212 55.2569 56.3587 64.1034 1 1 1 0.00423322 0.00325694 0.00324416 21.0742 -15.2946 -27.7044 
8934 1 2 C 11.61 2.6898 7.87528 11.7332 19.0904 56.6546 11.7332 -29.6918 1 0 -1 -0.00873792 0.00412254 0.000530121 -13.159 20.4905 19.5464 
4876 1 4 H 1.008 0.03 7.47204 0.826084 15.6123 7.47204 49.546 64.3945 0 1 1 -0.00539737 0.00181168 -0.0234624 11.1707 -1.462 7.63154 
1804 1 4 H 1.008 0.03 1.6455 6.24644 16.0939 -95.9131 6.24644 16.0939 -2 0 0 5.13017e-05 -0.00763411 0.0156793 3.08971 0.33204 -4.58458 