ITEM: TIMESTEP
49995000
ITEM: NUMBER OF ATOMS
15015
ITEM: BOX BOUNDS pp pp pp
6.5785501639275878e-01 4.9437144983605364e+01
6.4305158407256258e-01 4.9362948415933445e+01
6.5689452945985138e-01 4.9439105470539751e+01
ITEM: ATOMS id mol type element mass q x y z xu yu zu ix iy iz vx vy vz fx fy fz 
1582 1 4 H 1.008 0.03 5.95691 11.6347 4.06052 -42.8224 206.514 -44.7217 -1 4 -1 0.00404048 0.0109155 -0.0068471 4.19233 -4.70757 1.73399 
8008 1 4 H 1.008 0.03 8.27688 10.2997 3.42409 105.835 59.0196 100.989 2 1 2 -0.00505388 -0.0184338 -0.0250898 12.0084 6.09885 -6.01358 
1583 1 4 H 1.008 0.03 4.77162 11.6332 2.8236 -44.0077 206.513 -45.9586 -1 4 -1 -0.00829734 -0.000109561 -0.00553423 -5.69406 10.8826 -9.6349 
8846 1 4 H 1.008 0.03 2.54701 2.80475 5.00719 100.106 197.684 5.00719 2 4 0 -0.00439712 -0.00952448 -0.0140167 3.34431 -13.1701 -38.8358 
1576 1 4 H 1.008 0.03 2.44132 5.76645 3.07177 -46.338 200.646 -45.7104 -1 4 -1 -0.00705391 0.01922 0.00532073 19.8948 -5.53472 20.3904 
8002 1 2 C 11.61 2.6898 8.62471 9.27404 3.4903 106.183 57.9939 101.055 2 1 2 0.00538653 -0.00161571 0.00334088 -11.6333 -14.5225 38.1766 
8761 1 4 H 1.008 0.03 0.832658 12.1147 5.79321 244.729 -85.3251 54.5754 5 -2 1 0.0347455 -0.0440545 0.0156652 -16.8318 -0.996429 -3.28867 
1578 1 4 H 1.008 0.03 5.4256 7.09716 2.90723 -43.3537 201.977 -45.875 -1 4 -1 0.0132956 -0.0182343 -0.0255836 -7.1073 13.9046 -17.12 
8010 1 4 H 1.008 0.03 7.62383 8.44709 1.20414 105.182 57.167 98.7686 2 1 2 0.0068309 -0.0174216 0.0030226 7.20375 -2.31962 5.58423 
1642 1 4 H 1.008 0.03 3.7738 7.56801 7.0219 52.5531 -89.8718 -90.5425 1 -2 -2 0.00355759 0.00254561 -0.0173247 14.5058 15.6617 -8.77454 
1644 1 4 H 1.008 0.03 3.95578 5.07386 6.94919 52.7351 -92.3659 -90.6152 1 -2 -2 -0.00816615 0.00715436 -0.0114925 -41.1674 -28.0605 -30.1571 
13797 1 12 D 0.4 -2.5798 2.63672 2.48969 3.89607 100.195 197.369 3.89607 2 4 0 -0.00288545 0.00121853 -0.00185543 -2.07814 -4.76993 4.38512 
6363 1 4 H 1.008 0.03 6.75736 2.47758 1.55785 104.316 148.637 1.55785 2 3 0 -0.00146537 0.0182075 -0.0365129 38.6018 15.0759 -3.87423 
1569 1 1 O 15.6 1.4447 3.60591 7.30224 3.79279 -45.1734 202.182 -44.9894 -1 4 -1 0.000454884 0.00320325 -0.00622497 -2.03815 -11.4307 -0.851073 
1584 1 4 H 1.008 0.03 3.01834 5.64892 4.81508 -45.7609 200.529 -43.9671 -1 4 -1 -0.00823917 -0.0243295 -0.00851184 -6.16618 -10.8043 11.6358 
1580 1 4 H 1.008 0.03 5.07003 9.20009 1.46554 -43.7093 204.08 -47.3167 -1 4 -1 -0.0141845 0.0165991 0.0135558 -0.437643 1.08439 13.6499 
1643 1 4 H 1.008 0.03 5.43946 5.74927 6.87196 54.2187 -91.6905 -90.6925 1 -2 -2 -0.0159334 0.00971436 -0.00814372 15.5652 -0.835734 2.21735 
11071 1 13 D 0.4 -2.3022 4.51601 9.06673 2.43226 -44.2633 203.946 -46.3499 -1 4 -1 -0.000743392 -0.00240626 -0.00387414 7.47169 0.411894 -2.56277 
13796 1 11 D 0.4 -1.8447 1.49061 2.80959 3.11745 99.0492 197.689 3.11745 2 4 0 -0.00568544 0.000752544 -0.0089607 6.5106 -0.632549 -2.01567 
13762 1 11 D 0.4 -1.8447 2.59555 11.707 6.6419 246.492 -85.7328 55.4241 5 -2 1 -0.00896469 0.00110811 -0.000722075 8.02316 4.85321 -1.27197 
12864 1 13 D 0.4 -2.3022 6.25833 1.00803 3.10012 103.817 147.168 3.10012 2 3 0 0.00325924 -0.00217465 -0.00221525 -1.33213 1.17634 -0.862427 
10877 1 12 D 0.4 -2.5798 7.35062 10.0521 6.88333 56.1299 156.212 6.88333 1 3 0 -0.00490647 -0.001353 -0.0130314 -2.15448 -0.797334 2.29619 
13481 1 12 D 0.4 -2.5798 8.62739 9.2692 3.49024 106.186 57.9891 101.055 2 1 2 3.97056e-05 0.00069887 0.00438452 -13.5576 10.2029 3.55143 
6362 1 4 H 1.008 0.03 6.34384 1.61025 4.0361 103.902 147.77 4.0361 2 3 0 -0.0213201 -0.00681547 0.00635857 9.86374 12.1525 -20.8827 
11073 1 12 D 0.4 -2.5798 5.62285 11.0833 3.18849 -43.1564 205.963 -45.5937 -1 4 -1 0.00476366 0.00424598 -0.000151748 -1.09799 -5.52787 -2.10692 
3189 1 1 O 15.6 1.4447 8.00085 5.74644 6.16474 154.339 -91.6934 152.511 3 -2 3 -0.00233522 0.0037312 -0.00183759 2.58598 -18.3484 -6.57181 
8760 1 4 H 1.008 0.03 2.04447 10.1571 5.34413 245.941 -87.2827 54.1263 5 -2 1 0.0116159 -0.0166533 -0.0124023 14.6457 6.57124 -5.24673 
3195 1 4 H 1.008 0.03 8.64302 5.73519 4.21705 154.981 -91.7046 150.564 3 -2 3 -0.00129673 -0.0088627 -0.014764 -20.1585 -1.34228 -17.6093 
6355 1 3 C 11.61 2.4422 6.26041 1.01411 3.10629 103.819 147.174 3.10629 2 3 0 0.00333786 -0.00245375 -0.00140411 -11.5967 28.0679 10.9095 
1574 1 2 C 11.61 2.6898 5.61616 11.0821 3.18544 -43.1631 205.962 -45.5968 -1 4 -1 0.00523241 0.00450246 0.000995438 -22.908 -22.4942 11.1729 
1572 1 3 C 11.61 2.4422 4.51581 9.06652 2.41596 -44.2635 203.946 -46.3662 -1 4 -1 -0.000585357 -0.00196287 -0.00351302 26.0369 18.6259 -8.84586 
8838 1 2 C 11.61 2.6898 2.62878 2.47538 3.90902 100.187 197.355 3.90902 2 4 0 -0.00271554 0.00170349 -0.00189576 -21.618 -23.2405 32.9457 
8755 1 3 C 11.61 2.4422 1.70062 12.648 6.11774 245.597 -84.7918 54.8999 5 -2 1 0.00206194 0.000726363 0.00180895 2.19712 9.56014 2.2134 
12865 1 13 D 0.4 -2.3022 5.94823 1.8853 1.81725 103.507 148.045 1.81725 2 3 0 0.00135335 -0.00561931 -0.00373264 1.22419 0.322703 -3.97893 
1066 1 4 H 1.008 0.03 5.24773 11.3985 7.01639 54.027 157.558 7.01639 1 3 0 0.0305666 0.0185514 -0.0137517 -10.3465 6.65027 -27.4838 
8003 1 3 C 11.61 2.4422 8.60293 8.9484 1.21116 106.162 57.6683 98.7756 2 1 2 -0.00439909 0.000827951 0.00760723 -34.2647 29.1722 -3.18137 
1064 1 4 H 1.008 0.03 6.96735 10.217 5.86619 55.7466 156.377 5.86619 1 3 0 -0.00532999 0.00464623 0.0117454 12.9012 11.234 0.834374 
1573 1 1 O 15.6 1.4447 5.10184 9.75294 3.49813 -43.6775 204.633 -45.2841 -1 4 -1 -0.00187981 0.000249103 0.000525453 38.7253 18.616 2.59538 
13763 1 12 D 0.4 -2.5798 2.96008 10.7494 5.5763 246.857 -86.6904 54.3585 5 -2 1 0.00737553 0.00194933 -0.00613935 -3.39809 -4.92133 4.07318 
1571 1 3 C 11.61 2.4422 4.45401 7.59878 2.68886 -44.3253 202.478 -46.0933 -1 4 -1 0.00345402 -0.00270295 0.00282435 -19.2827 -9.92474 -11.0992 
6364 1 4 H 1.008 0.03 5.24381 2.6971 1.96918 102.802 148.857 1.96918 2 3 0 0.0425767 0.00239422 0.0127878 -13.3982 -4.67918 5.16287 
11068 1 11 D 0.4 -1.8447 3.60562 7.29991 3.79938 -45.1737 202.179 -44.9828 -1 4 -1 0.0019685 0.00431815 -0.00540631 -4.41959 1.88463 0.586777 
8837 1 1 O 15.6 1.4447 1.49012 2.80424 3.12065 99.0487 197.684 3.12065 2 4 0 -0.0039998 0.000663577 -0.00717987 28.012 26.2641 5.95482 
8754 1 2 C 11.61 2.6898 2.96255 10.7452 5.56487 246.859 -86.6946 54.3471 5 -2 1 0.00565611 0.00251228 -0.00715093 -2.47714 -0.526613 39.5174 
5320 1 4 H 1.008 0.03 1.59716 11.2024 0.719253 1.59716 -86.2374 49.5015 0 -2 1 -0.0163959 0.00194965 0.0175868 10.5195 -11.4153 -31.1602 
11678 1 11 D 0.4 -1.8447 7.9938 5.74498 6.16442 154.332 -91.6948 152.511 3 -2 3 -0.00149685 0.00337436 -0.00143691 0.19116 3.58402 3.89471 
1579 1 4 H 1.008 0.03 3.57873 9.51306 2.23101 -45.2006 204.393 -46.5512 -1 4 -1 0.0211686 0.000486111 -0.0064554 -25.5695 4.15185 -2.67732 
1063 1 4 H 1.008 0.03 8.41968 9.78924 6.97109 57.199 155.949 6.97109 1 3 0 0.0125916 0.0233322 -0.00609596 -12.6709 2.90142 -11.5499 
11072 1 11 D 0.4 -1.8447 5.11081 9.75578 3.50146 -43.6685 204.635 -45.2808 -1 4 -1 -0.00113352 -0.00140485 -9.5646e-05 -9.8209 0.938098 5.802 
1581 1 4 H 1.008 0.03 6.38382 11.0514 2.43154 -42.3955 205.931 -46.3507 -1 4 -1 -0.0173746 0.00137131 -0.024235 6.15166 1.53579 -6.69841 
6356 1 3 C 11.61 2.4422 5.94851 1.89101 1.81523 103.507 148.051 1.81523 2 3 0 0.00234135 -0.00645841 -0.00265204 -32.6914 -30.3822 12.9192 
11069 1 12 D 0.4 -2.5798 3.29032 5.90504 3.81774 -45.489 200.785 -44.9645 -1 4 -1 0.00027514 -0.00239843 -0.000203847 -4.95517 -0.98244 1.05331 
8007 1 4 H 1.008 0.03 7.70139 8.74676 3.74829 105.26 57.4667 101.313 2 1 2 -0.0308516 -0.0173056 0.0119197 2.59431 -6.67975 -13.5958 
13764 1 13 D 0.4 -2.3022 1.70587 12.6472 6.12894 245.602 -84.7926 54.9112 5 -2 1 0.000683559 0.000843348 0.00233635 -0.739482 -2.13721 2.34415 
1058 1 2 C 11.61 2.6898 7.34505 10.0503 6.88104 56.1243 156.21 6.88104 1 3 0 -0.00624835 0.00113665 -0.0106823 -8.87812 -22.4577 18.9043 
8768 1 4 H 1.008 0.03 3.71028 10.0107 5.96959 247.607 -87.4291 54.7518 5 -2 1 -0.00249445 -0.00870196 -0.000446473 -15.8004 14.8564 -7.84324 
1575 1 4 H 1.008 0.03 4.22791 5.4333 3.46705 -44.5514 200.313 -45.3152 -1 4 -1 0.0305184 0.0169581 -0.0291349 -18.5465 -17.5877 11.7252 
1577 1 4 H 1.008 0.03 3.96307 7.32172 1.71377 -44.8162 202.201 -47.0684 -1 4 -1 -0.0400796 0.0119237 -0.0042237 14.2178 -14.5686 26.7778 
8759 1 4 H 1.008 0.03 3.41092 11.1649 4.65119 247.307 -86.2749 53.4334 5 -2 1 -0.00246609 -0.026354 -0.00520967 -11.4387 3.6892 9.07644 
8847 1 4 H 1.008 0.03 3.49486 2.96558 3.55801 101.053 197.845 3.55801 2 4 0 0.0207827 -0.0196071 -0.0260355 18.861 5.50547 -13.4898 
1639 1 4 H 1.008 0.03 1.50191 6.81892 6.99711 50.2812 -90.6209 -90.5673 1 -2 -2 0.00267483 0.0039293 -0.0142555 -5.51902 -3.9376 1.95739 
11070 1 13 D 0.4 -2.3022 4.4558 7.59888 2.70117 -44.3235 202.478 -46.081 -1 4 -1 0.00372418 -0.00406575 0.00329439 -0.65626 -0.0720498 -2.71961 
1570 1 2 C 11.61 2.6898 3.28484 5.90323 3.81355 -45.4944 200.783 -44.9687 -1 4 -1 0.00125458 -0.00147416 0.000691148 10.476 36.0291 -43.0654 
8753 1 1 O 15.6 1.4447 2.59676 11.7145 6.63409 246.493 -85.7253 55.4163 5 -2 1 -0.00650344 0.00114734 -0.000606114 16.9781 -44.629 -37.2105 
8845 1 4 H 1.008 0.03 2.71788 1.35114 3.82297 100.276 196.231 3.82297 2 4 0 0.00637267 -0.0120877 -0.00414469 8.86777 27.5676 7.80842 
8009 1 4 H 1.008 0.03 8.3301 10.0126 1.1345 105.889 58.7325 98.6989 2 1 2 0.000522362 0.000629409 -0.0017918 6.82177 -5.35909 -2.63703 
1636 1 3 C 11.61 2.4422 4.59244 5.60593 7.5169 53.3717 -91.8339 -90.0475 1 -2 -2 -0.000265522 0.00485972 -0.00208751 3.69751 31.6168 62.8814 
3679 1 4 H 1.008 0.03 0.783986 3.81044 0.982159 0.783986 -93.6294 196.111 0 -2 4 0.00492696 0.0092361 0.00964579 -1.82182 8.11833 -22.0981 
13482 1 13 D 0.4 -2.3022 8.59768 8.94873 1.20928 106.156 57.6686 98.7737 2 1 2 0.000761626 0.00340174 0.01187 7.73362 -5.71723 2.30496 
11679 1 12 D 0.4 -2.5798 8.51231 5.77172 7.47172 154.85 -91.6681 153.818 3 -2 3 -0.000927683 0.00233958 -0.00155201 2.60656 3.23309 0.0517783 
3190 1 2 C 11.61 2.6898 8.52815 5.77103 7.46517 154.866 -91.6688 153.812 3 -2 3 -0.00165622 0.00276436 -0.00118808 9.27619 4.48098 -6.3143 
1072 1 4 H 1.008 0.03 6.76042 9.13784 7.13451 55.5397 155.298 7.13451 1 3 0 0.0069983 -0.0212429 -0.0062229 13.6552 9.68754 3.10703 
8839 1 4 H 1.008 0.03 0.749702 2.8048 7.50388 98.3083 197.684 7.50388 2 4 0 -0.0311845 0.0070375 0.0122107 -17.0418 -52.543 -1.27609 
11095 1 13 D 0.4 -2.3022 4.58424 5.60688 7.52745 53.3635 -91.8329 -90.037 1 -2 -2 -0.000385744 0.00430777 -0.00104933 2.54798 0.611259 0.300585 
11093 1 12 D 0.4 -2.5798 1.63751 7.36377 7.93699 50.4168 -90.076 -89.6274 1 -2 -2 0.00419792 0.00740022 -0.00103505 -1.53437 3.16473 -0.102947 
6224 1 4 H 1.008 0.03 6.29989 2.04191 12.1887 201.417 2.04191 -182.94 4 0 -4 0.0253139 -0.00181105 -0.011607 -1.16463 -7.03181 1.83816 
1059 1 3 C 11.61 2.4422 5.66855 11.2787 7.96625 54.4478 157.438 7.96625 1 3 0 -0.00237431 0.00423289 0.00731736 11.4407 -14.1551 3.56704 
10920 1 13 D 0.4 -2.3022 3.18078 3.89833 13.0112 100.739 3.89833 61.7935 2 0 1 5.92835e-05 -0.00282118 0.00143205 -0.767306 1.89976 2.6615 
1405 1 4 H 1.008 0.03 7.12667 6.19319 11.7628 7.12667 103.633 60.5451 0 2 1 0.0120731 -0.0146745 0.00400772 6.1717 -2.72146 -10.6396 
1404 1 4 H 1.008 0.03 5.20403 9.00688 10.3364 5.20403 106.447 59.1186 0 2 1 0.00613523 0.00247971 -0.00460784 10.3692 -5.25165 0.874894 
6254 1 4 H 1.008 0.03 4.01938 7.6159 13.6211 101.578 7.6159 62.4033 2 0 1 0.0102473 0.0174787 0.0175159 14.1607 7.58226 -17.8248 
11006 1 11 D 0.4 -1.8447 6.09297 7.83354 11.7837 6.09297 105.273 60.5659 0 2 1 -0.00353655 0.00104979 -0.00585857 0.040008 2.17696 -0.684698 
1057 1 1 O 15.6 1.4447 7.05829 11.0695 7.84984 55.8376 157.229 7.84984 1 3 0 0.0056771 -0.00101327 -0.00235038 2.15799 -14.7726 -15.7268 
1182 1 4 H 1.008 0.03 3.26386 7.26893 10.843 100.822 7.26893 59.6252 2 0 1 -0.03225 -0.00307647 -0.00111169 6.51473 -4.14609 4.96754 
4077 1 4 H 1.008 0.03 1.03174 10.1737 9.58373 -96.5268 -87.2661 9.58373 -2 -2 0 0.00055854 -0.00450738 0.00626606 35.2838 -6.21721 2.7573 
10876 1 11 D 0.4 -1.8447 7.06497 11.0652 7.85262 55.8443 157.225 7.85262 1 3 0 0.00745972 -0.000831521 -0.00106492 0.90857 4.34889 -1.85882 
12007 1 13 D 0.4 -2.3022 1.47316 12.1125 11.1575 -96.0854 -85.3273 11.1575 -2 -2 0 0.00690378 -0.00236026 0.00509292 1.44768 1.42951 -1.44313 
10921 1 13 D 0.4 -2.3022 2.8105 4.91595 12.0759 100.369 4.91595 60.8581 2 0 1 0.00643554 0.00158212 0.00172013 -0.542128 -0.87994 1.7445 
1402 1 4 H 1.008 0.03 4.30156 9.76825 12.2582 4.30156 107.208 61.0404 0 2 1 0.00665493 -0.00702712 0.0213995 -19.2705 -10.8857 14.1657 
4075 1 4 H 1.008 0.03 2.07563 12.8201 10.587 -95.483 -84.6197 10.587 -2 -2 0 -0.00199719 0.0136022 0.0205283 -4.5842 5.96796 -1.93112 
4078 1 4 H 1.008 0.03 2.77074 9.47348 9.67186 -94.7878 -87.9663 9.67186 -2 -2 0 -0.00979921 0.00195496 0.00557179 -4.72208 -1.12187 3.91885 
4067 1 3 C 11.61 2.4422 1.42614 12.5862 12.5357 -96.1324 -84.8536 12.5357 -2 -2 0 0.00473597 -0.00124334 -0.0011485 -21.2167 -20.7789 40.8655 
1401 1 4 H 1.008 0.03 5.05243 11.062 11.6519 5.05243 108.502 60.4342 0 2 1 0.0292048 0.0204102 0.0200855 3.88321 23.4627 -19.5673 
1633 1 1 O 15.6 1.4447 2.78793 6.93386 8.65501 51.5672 -90.5059 -88.9094 1 -2 -2 0.00514476 -0.00654742 0.00231722 -9.02684 -4.00369 -16.6082 
1637 1 1 O 15.6 1.4447 4.8255 4.88227 8.76674 53.6048 -92.5575 -88.7977 1 -2 -2 0.00108376 -0.00416343 0.00371236 4.10922 20.7626 -14.5012 
10075 2 7 O 15.6 1.6345 1.96405 1.08351 10.6652 -46.8152 1.08351 -86.8993 -1 0 -2 0.000393758 0.00380336 0.0075509 24.4036 -23.9995 25.3356 
1177 1 4 H 1.008 0.03 3.28578 2.82119 12.5839 100.844 2.82119 61.3661 2 0 1 -0.00465505 -0.0283381 -0.000152382 2.9897 15.7099 -1.98418 
5641 1 4 H 1.008 0.03 7.86999 11.7278 12.1095 -236.026 206.607 60.8917 -5 4 1 -0.0219754 0.022773 0.0179454 -2.80494 -5.30733 22.7297 
1065 1 4 H 1.008 0.03 5.12115 10.4525 8.38728 53.9004 156.612 8.38728 1 3 0 0.0205337 -0.0108008 -0.0402305 2.79088 -10.2293 8.01421 
1403 1 4 H 1.008 0.03 6.87449 9.50189 10.7427 6.87449 106.942 59.5249 0 2 1 -0.0150201 0.0154245 -0.00695837 -15.1141 -11.7442 8.90521 
12008 1 11 D 0.4 -1.8447 2.21266 10.9272 11.103 -95.3459 -86.5126 11.103 -2 -2 0 0.00490526 0.000658258 -0.000615958 0.265605 1.23158 0.749545 
1172 1 3 C 11.61 2.4422 2.83704 4.89077 12.0182 100.396 4.89077 60.8004 2 0 1 0.00735635 0.0019999 0.00138548 -51.8576 -24.4148 -23.2893 
10878 1 13 D 0.4 -2.3022 5.67869 11.2741 7.97483 54.458 157.434 7.97483 1 3 0 -0.000152753 0.00244545 0.00534007 4.50053 1.83289 -0.274353 
6217 1 4 H 1.008 0.03 7.86622 4.41579 14.0949 202.983 4.41579 -181.034 4 0 -4 0.0137104 0.00079767 0.00867102 8.88082 15.2017 -6.40393 
1647 1 4 H 1.008 0.03 5.63628 3.1803 9.55232 54.4156 -94.2595 -88.0121 1 -2 -2 -0.0239031 0.0129094 0.0177966 2.2491 -3.06896 18.1436 
1173 1 1 O 15.6 1.4447 2.717 6.16724 12.5345 100.276 6.16724 61.3167 2 0 1 0.00614621 0.00626323 -0.00239967 -17.8957 22.9627 -1.70057 
1645 1 4 H 1.008 0.03 6.26483 3.59739 8.04295 55.0441 -93.8424 -89.5215 1 -2 -2 -0.0257005 0.0014426 -0.000932604 -0.170264 -4.4923 -12.2615 
12009 1 12 D 0.4 -2.5798 2.13952 10.3448 9.81618 -95.4191 -87.095 9.81618 -2 -2 0 -0.00647161 -0.002857 -0.000691386 -3.55304 0.54651 -1.72638 
79 1 4 H 1.008 0.03 7.73561 7.22021 14.4088 -89.823 7.22021 111.973 -2 0 2 0.00353415 0.00915646 -0.0221255 -12.0534 0.305594 -7.73719 
1393 1 1 O 15.6 1.4447 6.04536 10.3142 13.2661 6.04536 107.754 62.0483 0 2 1 -0.00526629 -0.00580117 0.00267281 -1.56305 0.395615 5.88379 
9173 1 1 O 15.6 1.4447 0.699761 7.78112 13.9693 98.2583 7.78112 62.7515 2 0 1 0.000206907 -0.00484414 -0.0036269 -13.9911 -9.84058 1.71905 
1171 1 3 C 11.61 2.4422 3.21312 3.85604 12.9848 100.772 3.85604 61.767 2 0 1 0.00123129 -0.00323587 0.00130239 29.9927 0.545032 68.9823 
1399 1 4 H 1.008 0.03 5.53997 12.2054 14.0375 5.53997 109.645 62.8198 0 2 1 0.0248368 -0.0150201 -0.00555092 -5.71295 -1.03435 -12.3775 
1397 1 1 O 15.6 1.4447 6.0939 7.83979 11.7778 6.0939 105.28 60.56 0 2 1 -0.00449677 0.000718736 -0.00511723 -0.963867 10.9492 27.0026 
1061 1 1 O 15.6 1.4447 6.17389 12.5776 9.93686 54.9532 158.737 9.93686 1 3 0 0.00462911 0.00299901 0.00142979 -3.88686 9.53941 24.4014 
11094 1 13 D 0.4 -2.3022 3.98403 7.00866 7.92737 52.7633 -90.4311 -89.637 1 -2 -2 -0.00190735 -0.00276838 -0.00861374 -1.96674 0.0519972 1.03523 
4068 1 3 C 11.61 2.4422 1.46615 12.1168 11.1522 -96.0924 -85.323 11.1522 -2 -2 0 0.00720795 -0.00199395 0.00645037 19.2322 26.173 -22.3656 
1395 1 3 C 11.61 2.4422 5.27644 10.1326 12.0802 5.27644 107.572 60.8624 0 2 1 -0.00812058 -0.00522882 -0.000363159 16.5541 -19.3103 14.1663 
11097 1 12 D 0.4 -2.5798 5.34581 3.59079 8.61804 54.1251 -93.849 -88.9464 1 -2 -2 -0.00597738 0.00812093 -0.000197563 -1.64441 3.07406 0.509261 
1178 1 4 H 1.008 0.03 4.19813 4.26185 13.3487 101.757 4.26185 62.1309 2 0 1 0.0186148 0.00146766 -0.015693 -13.426 -24.7502 -9.71567 
6216 1 4 H 1.008 0.03 7.29401 3.4426 12.1027 202.411 3.4426 -183.026 4 0 -4 -0.00857815 0.0176451 -0.00860144 -8.29581 -4.26098 11.4987 
11007 1 12 D 0.4 -2.5798 6.65288 6.82906 11.0139 6.65288 104.269 59.7961 0 2 1 0.00471872 0.000678191 -0.005403 -3.39029 -1.56543 0.787796 
11002 1 11 D 0.4 -1.8447 6.05066 10.3116 13.2721 6.05066 107.751 62.0543 0 2 1 -0.00391987 -0.00448409 0.00387685 0.621655 -0.232889 1.29076 
1180 1 4 H 1.008 0.03 3.47303 4.78613 11.1939 101.032 4.78613 59.9761 2 0 1 -0.000513842 -0.0223293 -0.0152317 21.2906 7.19154 -24.4357 
10923 1 12 D 0.4 -2.5798 2.39562 7.09995 11.5361 99.9542 7.09995 60.3183 2 0 1 0.00359231 -0.00146671 -0.000888785 -0.0586956 1.32907 -2.63733 
14644 2 16 D 0.4 -2.0238 1.96354 1.09012 10.6704 -46.8158 1.09012 -86.894 -1 0 -2 0.00186128 0.00457288 0.00778953 3.64811 0.0881298 -1.07267 
11096 1 11 D 0.4 -1.8447 4.82706 4.88365 8.77613 53.6063 -92.5561 -88.7883 1 -2 -2 0.0030043 -0.00488434 0.00490931 -1.57251 0.71268 -1.73381 
1169 1 1 O 15.6 1.4447 2.39843 3.89964 14.1956 99.957 3.89964 62.9778 2 0 1 0.00210442 0.00765235 -0.00136241 -1.0389 0.572393 -20.3607 
5639 1 4 H 1.008 0.03 8.37429 10.8117 10.035 -235.522 205.691 58.8172 -5 4 1 -0.0204852 -0.00207403 -0.0202279 2.42768 12.154 -10.8616 
10879 1 13 D 0.4 -2.3022 5.44054 12.5056 8.73726 54.2198 158.665 8.73726 1 3 0 -0.00386479 -0.00265949 -0.0052069 -0.855539 1.91963 1.37806 
11092 1 11 D 0.4 -1.8447 2.78582 6.93749 8.66479 51.5651 -90.5023 -88.8996 1 -2 -2 0.00515684 -0.00718729 0.00201136 -0.645935 -1.25152 1.30951 
1183 1 4 H 1.008 0.03 2.2583 8.1302 11.8957 99.8169 8.1302 60.6779 2 0 1 0.00622344 -0.00742277 -0.0205555 -7.8263 -9.31718 -1.80064 
6210 1 2 C 11.61 2.6898 7.00699 2.61427 12.7808 202.124 2.61427 -182.348 4 0 -4 0.0012928 -0.00408198 0.0029958 -27.3642 29.195 -26.0623 
10473 3 10 Mg 24.305 2 1.59749 5.97492 14.3777 99.1561 5.97492 63.1599 2 0 1 -0.00159256 0.000722436 -0.00321589 31.0734 -21.9829 -23.7947 
10918 1 11 D 0.4 -1.8447 2.35992 3.98952 14.206 99.9185 3.98952 62.9882 2 0 1 0.00135809 0.00834044 -0.00148002 1.60353 1.94488 -1.07143 
12809 1 12 D 0.4 -2.5798 7.00632 2.61498 12.7875 202.123 2.61498 -182.341 4 0 -4 0.00267862 -0.00458572 0.00380293 -0.243705 0.897561 -0.958514 
4070 1 2 C 11.61 2.6898 2.13655 10.352 9.80713 -95.422 -87.0878 9.80713 -2 -2 0 -0.00743726 -0.00114332 -0.00102706 -32.0426 14.7665 -4.49372 
10922 1 11 D 0.4 -1.8447 2.66223 6.15815 12.6269 100.221 6.15815 61.4091 2 0 1 0.00505037 0.00663733 -0.002548 0.423385 -0.872534 0.390964 
4079 1 4 H 1.008 0.03 2.4596 11.1001 9.08337 -95.099 -86.3397 9.08337 -2 -2 0 -0.00600981 0.00848843 0.0163035 2.87109 -3.68609 -2.18443 
1396 1 3 C 11.61 2.4422 5.92653 9.09011 11.1624 5.92653 106.53 59.9446 0 2 1 -0.00204425 -0.00252219 -0.0064643 1.91313 27.4681 -32.0499 
10880 1 11 D 0.4 -1.8447 6.17914 12.5744 9.9423 54.9584 158.734 9.9423 1 3 0 0.00385537 0.0029509 0.0013587 1.85446 3.47559 0.72463 
4074 1 4 H 1.008 0.03 0.838379 11.8722 13.1242 -96.7202 -85.5676 13.1242 -2 -2 0 0.0137968 -0.0297161 -0.00482393 17.1109 -4.18098 -5.13858 
1181 1 4 H 1.008 0.03 1.6107 6.80646 10.8626 99.1693 6.80646 59.6448 2 0 1 0.0124025 -0.00556048 -0.0140312 -21.416 -2.27478 -8.98156 
6209 1 1 O 15.6 1.4447 6.38797 3.07466 13.9849 201.505 3.07466 -181.144 4 0 -4 -0.00107567 0.000740822 -0.00145714 -8.24244 -7.79337 -14.3666 
3199 1 4 H 1.008 0.03 7.70946 5.71435 8.13187 154.047 -91.7254 154.479 3 -2 3 0.012373 -0.01556 0.00524925 -14.1319 -0.327504 17.2426 
1174 1 2 C 11.61 2.6898 2.40493 7.11863 11.4856 99.9635 7.11863 60.2678 2 0 1 0.00269344 -0.00249217 -0.000150992 32.0514 4.69325 34.16 
11004 1 13 D 0.4 -2.3022 5.28446 10.1192 12.0906 5.28446 107.559 60.8728 0 2 1 -0.00939181 -0.00554526 0.00044147 -0.393609 -2.25588 -0.262217 
1179 1 4 H 1.008 0.03 1.84681 4.58175 11.6609 99.4054 4.58175 60.4431 2 0 1 0.0054895 0.00597356 -0.00358173 5.48399 4.22608 -2.90834 
1406 1 4 H 1.008 0.03 7.28529 7.09393 10.2231 7.28529 104.534 59.0053 0 2 1 0.0131616 0.000285653 0.0129858 17.3789 11.4968 -19.7583 
1634 1 2 C 11.61 2.6898 1.63296 7.36264 7.93044 50.4123 -90.0772 -89.634 1 -2 -2 0.00458894 0.00678567 -0.000805035 -0.96048 12.131 25.3331 
1641 1 4 H 1.008 0.03 4.64895 7.44031 8.60145 53.4282 -89.9995 -88.963 1 -2 -2 0.0046854 0.000337588 -0.000492523 23.3781 24.1248 6.91853 
1638 1 2 C 11.61 2.6898 5.34492 3.58406 8.61208 54.1242 -93.8557 -88.9523 1 -2 -2 -0.00605028 0.00871946 -0.00088976 16.8114 18.7118 7.47177 
1398 1 2 C 11.61 2.6898 6.64858 6.82734 11.0094 6.64858 104.267 59.7916 0 2 1 0.00357602 0.000494699 -0.00391422 -41.1279 -29.4473 22.4225 
1407 1 4 H 1.008 0.03 5.76627 6.2656 10.6332 5.76627 103.705 59.4154 0 2 1 -0.00492873 0.0136175 -0.0149321 17.001 5.60268 -1.4279 
13922 1 11 D 0.4 -1.8447 0.758262 7.67117 13.9936 98.3168 7.67117 62.7758 2 0 1 0.00150391 -0.00584167 -0.00317986 -0.365273 -1.02925 -1.88613 
1060 1 3 C 11.61 2.4422 5.42357 12.5113 8.73221 54.2029 158.671 8.73221 1 3 0 -0.00317871 -0.00286855 -0.00509571 19.2913 58.1001 -12.0129 
11005 1 13 D 0.4 -2.3022 5.92736 9.07997 11.1724 5.92736 106.52 59.9547 0 2 1 -0.00202506 -0.00219775 -0.00631087 1.40027 2.77845 -1.39297 
4069 1 1 O 15.6 1.4447 2.20925 10.9362 11.1004 -95.3493 -86.5036 11.1004 -2 -2 0 0.00440107 0.000609979 -1.92677e-05 -3.16192 -30.9491 -5.8963 
11003 1 12 D 0.4 -2.5798 5.39416 11.1404 14.229 5.39416 108.58 63.0112 0 2 1 0.00502286 -0.0018426 -0.00345544 1.02002 -2.39255 -2.60615 
6215 1 4 H 1.008 0.03 7.91303 2.09643 12.8873 203.03 2.09643 -182.241 4 0 -4 -0.0322555 0.0163257 -0.00315481 19.3321 -16.3283 9.94809 
1635 1 3 C 11.61 2.4422 3.98552 7.01066 7.91564 52.7648 -90.4291 -89.6488 1 -2 -2 -0.00136018 -0.00278989 -0.00783017 -8.77189 -47.8818 -16.5175 
1067 1 4 H 1.008 0.03 4.40144 12.4552 8.95535 53.1807 158.615 8.95535 1 3 0 0.00633231 -0.0243187 -0.0403814 -28.7879 5.83499 7.00997 
4065 1 1 O 15.6 1.4447 2.7147 12.7692 13.049 -94.8439 -84.6706 13.049 -2 -2 0 -0.000180964 -0.00680447 0.00117651 21.3498 -0.743124 -5.94846 
12808 1 11 D 0.4 -1.8447 6.38278 3.07315 13.9849 201.5 3.07315 -181.144 4 0 -4 -0.00132549 0.00128607 -0.00226587 -1.03883 -1.53228 -0.998237 
1394 1 2 C 11.61 2.6898 5.38691 11.143 14.2259 5.38691 108.583 63.0082 0 2 1 0.0046353 -0.00390711 -0.00446063 25.5378 9.85819 -10.4934 
1646 1 4 H 1.008 0.03 4.5888 2.94585 8.27596 53.3681 -94.4939 -89.2885 1 -2 -2 -0.0505695 -0.0288398 0.0226206 -16.2975 -20.7705 -20.9528 
12004 1 11 D 0.4 -1.8447 2.72151 12.7677 13.0492 -94.8371 -84.6721 13.0492 -2 -2 0 -0.00127885 -0.00755115 -2.20332e-05 -0.633111 5.2491 3.5796 
9183 1 4 H 1.008 0.03 0.818339 9.75585 13.6677 98.3769 9.75585 62.4499 2 0 1 0.0223381 0.0195261 0.00785376 4.06848 -9.23038 14.4669 
12006 1 13 D 0.4 -2.3022 1.43884 12.5867 12.5322 -96.1197 -84.8531 12.5322 -2 -2 0 0.00457939 0.0016863 0.000264891 -0.51335 -6.8319 3.58331 
1176 1 4 H 1.008 0.03 2.2119 1.77161 14.3778 99.7705 1.77161 63.16 2 0 1 0.0105361 -0.0276941 -0.00117928 11.576 16.9232 10.4657 
1648 1 4 H 1.008 0.03 0.820111 7.25478 8.66257 49.5994 -90.185 -88.9019 1 -2 -2 -0.00888082 -0.0104011 0.00347626 -3.1305 -9.65173 -14.4673 
1408 1 4 H 1.008 0.03 4.33348 10.9072 14.1729 4.33348 108.347 62.9551 0 2 1 -0.0225858 3.92946e-05 0.00481736 -7.18655 1.35986 18.8542 
9174 1 2 C 11.61 2.6898 1.01969 9.01476 14.4749 98.5783 9.01476 63.2572 2 0 1 -0.00196392 -3.38094e-05 -0.0041751 4.27964 37.5329 -14.7637 
8840 1 4 H 1.008 0.03 0.751647 0.942925 7.76876 98.3102 195.823 7.76876 2 4 0 0.000879991 0.00141574 -0.000569944 9.13169 -5.29829 11.6006 
13923 1 12 D 0.4 -2.5798 1.02927 8.9574 14.4668 98.5879 8.9574 63.249 2 0 1 -0.00170614 -0.000513561 -0.00485905 1.15884 6.52493 1.72759 
5648 1 4 H 1.008 0.03 8.76082 12.5568 9.56088 -235.136 207.436 58.3431 -5 4 1 0.00875817 0.012079 0.0264409 8.06104 -24.7163 26.0928 
1640 1 4 H 1.008 0.03 1.59348 8.45069 7.74745 50.3728 -88.9891 -89.817 1 -2 -2 -0.0201475 0.0247398 -0.00600225 9.27418 -10.1706 -5.09796 
7879 1 4 H 1.008 0.03 4.05057 6.15392 20.3369 52.8299 201.034 -174.792 1 4 -4 0.00229327 0.00181733 -0.0308151 -23.333 -40.4543 7.74584 
10412 2 7 O 15.6 1.6345 5.00331 11.348 20.0952 53.7826 108.788 68.8774 1 2 1 -0.00282692 -0.00497542 0.00186519 17.6783 1.89581 1.98476 
7998 1 4 H 1.008 0.03 8.52649 12.0439 21.2904 8.52649 -85.3959 -76.2741 0 -2 -2 -0.0037991 0.000851041 0.00804749 -0.589779 9.05543 6.59568 
6212 1 3 C 11.61 2.4422 6.90153 4.45087 16.0018 202.019 4.45087 -179.127 4 0 -4 0.00509277 0.000529101 0.000829106 36.0999 -2.07767 28.0908 
9501 2 9 F 18.6 1.274 0.923008 2.82053 21.2995 49.7023 2.82053 118.864 1 0 2 -0.00136698 0.00077149 -0.000510791 -8.48972 -7.35023 -16.3432 
7874 1 2 C 11.61 2.6898 4.79384 6.83143 20.1408 53.5731 201.711 -174.988 1 4 -4 0.00139113 -0.00896076 0.00281937 65.1676 60.8167 -7.20939 
9499 2 9 F 18.6 1.274 1.82039 3.88933 19.7823 50.5997 3.88933 117.347 1 0 2 0.00247592 0.00914051 -0.00522882 -24.544 -19.1052 -13.45 
6221 1 4 H 1.008 0.03 7.3287 4.18863 18.7782 202.446 4.18863 -176.351 4 0 -4 0.00442103 0.00830703 -0.0102863 -23.8957 -6.19289 -9.21774 
6253 1 4 H 1.008 0.03 4.20768 8.70544 14.913 101.766 8.70544 63.6953 2 0 1 -0.011937 -0.0228802 -0.00400415 -6.01435 -26.3543 7.13004 
14067 2 17 D 0.4 -1.7782 1.00134 2.82135 19.9533 49.7806 2.82135 117.518 1 0 2 -0.00187968 0.00768777 0.00229334 1.81738 6.3731 4.41959 
14981 2 16 D 0.4 -2.0238 5.00527 11.3495 20.0921 53.7846 108.789 68.8743 1 2 1 0.00163417 -0.0022599 0.000551464 1.06548 -1.61412 7.73428 
12813 1 12 D 0.4 -2.5798 6.3179 3.99654 18.305 201.435 3.99654 -176.824 4 0 -4 -0.00462124 -0.00775087 0.00218042 0.152098 -2.72611 0.131937 
6241 1 1 O 15.6 1.4447 1.10077 5.95115 16.3623 98.6594 5.95115 65.1445 2 0 1 0.003921 -0.00341061 -0.00159551 26.5277 1.31639 29.9716 
8477 1 4 H 1.008 0.03 5.75579 1.06036 15.4461 5.75579 49.7803 64.2283 0 1 1 -0.0117011 -0.00185736 0.00509373 14.0875 -8.50243 5.2338 
10404 2 7 O 15.6 1.6345 0.867116 11.2819 17.5995 49.6464 108.722 66.3817 1 2 1 -0.00335008 -0.00339313 0.00174736 -1.9573 -22.3873 -7.25906 
14972 2 15 D 0.4 -1.2271 1.61735 10.7234 18.6875 50.3966 108.163 67.4697 1 2 1 -0.00511575 0.00365772 -0.00146931 1.81258 2.5505 5.17593 
14063 2 18 D 0.4 -1.3442 5.86004 2.29424 20.7598 54.6393 2.29424 118.324 1 0 2 0.00135567 -0.000802345 -0.00157588 -1.14625 1.6076 -0.296273 
14056 2 14 D 0.4 -2.0896 3.26043 1.49109 19.9557 52.0397 1.49109 117.52 1 0 2 -0.000760937 -0.00188622 0.00155663 -2.15224 1.85863 -2.85902 
6252 1 4 H 1.008 0.03 3.06718 7.795 16.8624 100.626 7.795 65.6446 2 0 1 0.000277227 -0.0233856 -0.0113939 7.06807 -14.6839 -2.9278 
6244 1 3 C 11.61 2.4422 3.3607 6.74781 16.6139 100.919 6.74781 65.3961 2 0 1 0.000600775 -4.23687e-05 -0.00632062 4.41445 31.1705 -13.6477 
9497 2 7 O 15.6 1.6345 1.67381 1.3878 17.9971 50.4531 1.3878 115.561 1 0 2 -0.00380087 -0.00091048 -0.00562305 -5.45705 -12.8421 15.8038 
12820 1 11 D 0.4 -1.8447 1.13628 5.9532 16.2342 98.6949 5.9532 65.0164 2 0 1 0.00288432 -0.00324241 -0.00155991 -0.624371 1.93035 1.57554 
9181 1 4 H 1.008 0.03 2.0738 9.07408 14.7097 99.6324 9.07408 63.4919 2 0 1 0.00821975 -0.00281824 -0.00600593 1.31036 0.818479 -1.24356 
10509 1 12 D 0.4 -2.5798 8.65615 7.66395 14.7393 -88.9024 7.66395 112.304 -2 0 2 0.000873977 -0.000410717 -0.000478598 -0.211512 0.643359 2.4799 
10409 2 9 F 18.6 1.274 1.23556 11.2008 21.2481 50.0148 108.641 70.0303 1 2 1 0.000704301 -0.00898797 -0.00170539 13.1907 -6.97441 16.8612 
6214 1 2 C 11.61 2.6898 6.31797 3.99198 18.3147 201.435 3.99198 -176.814 4 0 -4 -0.00493339 -0.0069109 0.00229821 37.8134 -40.4902 13.809 
12823 1 13 D 0.4 -2.3022 3.32692 6.72714 16.566 100.886 6.72714 65.3482 2 0 1 0.00117517 -0.000854622 -0.00568624 0.483451 1.19168 2.21712 
9495 2 6 S 31.66 1.8199 1.76626 1.29435 19.4475 50.5456 1.29435 117.012 1 0 2 -0.00169987 0.000861092 -0.00546363 16.2634 8.03522 -23.7814 
6219 1 4 H 1.008 0.03 6.09799 5.09904 15.7759 201.215 5.09904 -179.353 4 0 -4 0.00247111 -0.0105648 0.00408605 -13.6396 19.3363 -2.47241 
14980 2 16 D 0.4 -2.0238 4.66284 10.3098 17.8566 53.4421 107.75 66.6388 1 2 1 -0.00248184 -0.00124644 0.00209298 1.19273 0.48813 -0.572218 
6211 1 3 C 11.61 2.4422 7.35534 3.72135 14.7239 202.472 3.72135 -180.405 4 0 -4 0.00219697 -0.00291983 -0.00262963 45.98 -20.8416 41.6212 
7880 1 4 H 1.008 0.03 4.94853 7.05155 19.0675 53.7278 201.931 -176.061 1 4 -4 -0.0187459 0.00879037 0.0148121 -3.46516 -11.3866 12.8194 
14066 2 16 D 0.4 -2.0238 1.67508 1.39031 17.9866 50.4544 1.39031 115.551 1 0 2 -0.00455084 -0.00131168 -0.00698298 -2.76174 1.95363 3.53128 
6220 1 4 H 1.008 0.03 7.7792 5.00411 16.483 202.896 5.00411 -178.646 4 0 -4 0.034061 0.0236079 0.0204605 -27.9551 -11.0979 -21.9506 
10410 2 6 S 31.66 1.8199 4.31416 11.3387 18.8431 53.0935 108.778 67.6254 1 2 1 0.00288833 0.00677064 0.00280382 -19.1502 -6.09445 7.41873 
14973 2 16 D 0.4 -2.0238 0.865636 11.2852 17.5901 49.6449 108.725 66.3723 1 2 1 -0.00333557 -0.00496852 0.000891737 -1.44666 -3.76783 0.885717 