ITEM: TIMESTEP
50000000
ITEM: NUMBER OF ATOMS
15015
ITEM: BOX BOUNDS pp pp pp
6.5785501639275878e-01 4.9437144983605364e+01
6.4305158407256258e-01 4.9362948415933445e+01
6.5689452945985138e-01 4.9439105470539751e+01
ITEM: ATOMS id mol type element mass q x y z xu yu zu ix iy iz vx vy vz fx fy fz 
1581 1 4 H 1.008 0.03 6.22958 10.5605 2.236 -42.5497 205.44 -46.5462 -1 4 -1 -0.0106336 0.00118927 -0.0112564 0.680542 -0.176306 11.7237 
8838 1 2 C 11.61 2.6898 0.694784 3.37 5.9727 98.2534 198.25 5.9727 2 4 0 -0.0032454 -0.00649657 -0.00331295 -23.502 -7.58248 15.4309 
12867 1 12 D 0.4 -2.5798 3.96312 1.21297 1.2821 101.522 147.373 1.2821 2 3 0 -0.00527368 0.00335921 0.0050667 -1.78513 0.297137 2.59946 
6367 1 4 H 1.008 0.03 2.88107 1.04199 1.5055 100.44 147.202 1.5055 2 3 0 -0.00364999 -0.00545224 -0.0206566 16.1882 1.27745 2.10188 
8845 1 4 H 1.008 0.03 1.27616 2.55191 5.64644 98.8347 197.431 5.64644 2 4 0 -0.00388973 0.00790617 0.0139015 17.8861 -14.225 -11.2007 
11676 1 13 D 0.4 -2.3022 7.23931 5.51216 4.46735 153.577 -91.9276 150.814 3 -2 3 0.00181872 -0.00506943 -0.00347835 -0.515943 -5.96366 0.132243 
1068 1 4 H 1.008 0.03 6.11021 12.1392 6.94282 54.8895 158.299 6.94282 1 3 0 0.00947067 0.000303006 0.0181814 1.464 -3.11744 4.89548 
1578 1 4 H 1.008 0.03 2.51476 8.5585 1.59146 -46.2645 203.438 -47.1908 -1 4 -1 -0.00662701 -0.00510674 -0.00536256 12.5744 -2.08298 -16.4051 
13797 1 12 D 0.4 -2.5798 0.698218 3.38345 5.96409 98.2568 198.263 5.96409 2 4 0 -0.00348973 -0.00682192 -0.00366066 -1.83856 0.385981 1.76388 
1583 1 4 H 1.008 0.03 5.47577 11.2205 3.70676 -43.3035 206.1 -45.0754 -1 4 -1 -0.00856556 0.0241137 -0.0202799 -2.134 -4.11482 2.35028 
3193 1 4 H 1.008 0.03 7.52499 4.50281 4.14888 153.863 -92.937 150.496 3 -2 3 -0.00411625 -0.00973799 0.0105165 -2.16203 1.32379 1.32828 
8014 1 4 H 1.008 0.03 5.65676 4.18214 1.24964 103.215 52.902 98.8141 2 1 2 0.00769858 -0.00463075 -0.00130178 19.8204 7.8886 -0.736965 
6363 1 4 H 1.008 0.03 4.03205 3.12396 2.96194 101.591 149.284 2.96194 2 3 0 0.00386683 0.0287092 0.0128008 -7.96512 9.94393 -3.64928 
1569 1 1 O 15.6 1.4447 1.82805 9.2454 3.32139 -46.9512 204.125 -45.4608 -1 4 -1 -0.00315733 -0.00523115 -0.000594982 38.3944 24.1097 -10.072 
13762 1 11 D 0.4 -1.8447 0.729348 11.8799 6.76183 244.626 -85.5599 55.544 5 -2 1 -0.000478469 0.00167528 0.00050465 -5.99834 0.0275312 -1.68776 
1580 1 4 H 1.008 0.03 3.95563 10.671 1.14803 -44.8237 205.551 -47.6342 -1 4 -1 -0.0158302 0.00578605 -0.0125761 4.55457 11.7782 -29.5045 
13595 1 12 D 0.4 -2.5798 8.40129 1.31893 0.713313 252.298 1.31893 -48.0689 5 0 -1 -0.00317849 0.000776385 0.0127743 -2.53909 4.17615 1.51057 
11071 1 13 D 0.4 -2.3022 3.57643 10.4115 2.09865 -45.2029 205.291 -46.6836 -1 4 -1 0.00406161 -0.00426324 -0.00432498 -1.36377 -6.48968 -0.0751704 
3199 1 4 H 1.008 0.03 3.41379 6.69022 4.52426 149.752 -90.7496 150.871 3 -2 3 -0.00459791 -0.011682 -0.00119549 9.64938 -4.81764 8.51086 
3186 1 2 C 11.61 2.6898 8.20657 5.09853 6.56092 154.544 -92.3413 152.908 3 -2 3 0.000973104 -0.0027881 -0.00768741 14.4546 -10.9415 17.6447 
12864 1 13 D 0.4 -2.3022 5.09394 2.27694 4.56881 102.653 148.437 4.56881 2 3 0 0.00149587 -0.00574369 0.00814707 0.784069 1.07021 3.78063 
10877 1 12 D 0.4 -2.5798 6.02748 8.30863 7.39184 54.8068 154.468 7.39184 1 3 0 -0.0078146 -0.00484443 0.00316142 2.13084 -2.02698 1.99941 
1582 1 4 H 1.008 0.03 6.28675 9.6414 3.75603 -42.4925 204.521 -45.0262 -1 4 -1 -0.0202293 0.00981221 -0.0132102 -0.245456 -12.9793 9.14066 
6362 1 4 H 1.008 0.03 4.66924 2.99836 5.28217 102.228 149.158 5.28217 2 3 0 -0.00257447 -0.0134684 -0.000386404 -1.40696 -5.11573 4.93216 
11073 1 12 D 0.4 -2.5798 5.69421 10.291 3.16364 -43.0851 205.171 -45.6186 -1 4 -1 0.00432794 0.00120341 0.00485707 2.4558 2.70296 -4.71249 
3189 1 1 O 15.6 1.4447 4.78776 5.16043 4.06729 151.126 -92.2794 150.414 3 -2 3 0.00152493 -0.00106212 0.00191592 6.94264 8.27015 5.33087 
12862 1 11 D 0.4 -1.8447 5.21011 0.984373 5.09233 102.769 147.144 5.09233 2 3 0 0.00461001 0.000348353 -0.00452722 2.28301 -7.92 0.183373 
3197 1 4 H 1.008 0.03 4.4729 6.02191 5.85134 150.811 -91.4179 152.198 3 -2 3 0.013032 0.0210804 -0.00140237 4.69255 12.9023 21.9678 
6355 1 3 C 11.61 2.4422 5.09296 2.28992 4.57213 102.652 148.45 4.57213 2 3 0 0.000403806 -0.00449762 0.00763335 18.6926 6.31818 -9.94043 
1574 1 2 C 11.61 2.6898 5.69157 10.2961 3.16313 -43.0877 205.176 -45.6191 -1 4 -1 0.00436186 0.00171744 0.00393059 -14.2702 11.7044 -28.5113 
1572 1 3 C 11.61 2.4422 3.57757 10.4096 2.08684 -45.2017 205.289 -46.6954 -1 4 -1 0.00586643 -0.00141671 -0.00317446 3.56166 -12.0171 29.6952 
8011 1 4 H 1.008 0.03 8.11472 4.76785 0.745328 105.673 53.4877 98.3097 2 1 2 0.0226129 0.00136749 0.025541 -15.5843 -1.41361 -7.56489 
3188 1 3 C 11.61 2.4422 5.95022 5.95077 3.81835 152.288 -91.489 150.165 3 -2 3 0.00407894 -0.00606652 0.00283018 -25.4062 47.3641 -28.4502 
12865 1 13 D 0.4 -2.3022 4.17494 2.13283 3.36893 101.734 148.293 3.36893 2 3 0 0.00247194 0.00214907 -0.000925329 4.35451 2.17618 2.20898 
1066 1 4 H 1.008 0.03 4.21395 10.1694 7.2306 52.9932 156.329 7.2306 1 3 0 -0.00975723 0.0175606 -0.00506569 -4.13089 -4.48674 -23.2889 
3187 1 3 C 11.61 2.4422 7.24442 5.51257 4.4608 153.582 -91.9272 150.807 3 -2 3 0.00202175 -0.00774474 -0.00415059 7.24569 12.059 -0.247804 
1064 1 4 H 1.008 0.03 5.82003 7.92617 6.36252 54.5993 154.086 6.36252 1 3 0 0.0247279 0.0126289 0.000856927 -4.70703 18.4609 9.7371 
1573 1 1 O 15.6 1.4447 4.55809 9.59409 2.71072 -44.2212 204.474 -46.0715 -1 4 -1 0.00213479 0.00515949 0.000186537 -9.92125 3.6671 12.2503 
8306 1 2 C 11.61 2.6898 8.39844 1.31796 0.722551 252.295 1.31796 -48.0597 5 0 -1 -0.00267284 -0.000311115 0.00961229 16.6729 -4.43569 17.8058 
1571 1 3 C 11.61 2.4422 2.3594 9.53432 2.02164 -46.4199 204.414 -46.7606 -1 4 -1 0.00139555 0.00193309 -0.0068855 -17.5228 -16.8307 20.4474 
6364 1 4 H 1.008 0.03 3.19604 1.69679 3.54497 100.755 147.856 3.54497 2 3 0 -0.0263121 0.00100388 0.0205948 0.806215 2.99175 15.6146 
11068 1 11 D 0.4 -1.8447 1.82115 9.24339 3.32642 -46.9581 204.123 -45.4558 -1 4 -1 -0.00220608 -0.00802937 -0.00184033 3.01497 6.38608 2.09336 
3670 1 2 C 11.61 2.6898 0.798339 4.41312 1.58573 0.798339 -93.0267 196.715 0 -2 4 0.000467638 0.00340329 0.00226178 -5.05032 17.622 15.8861 
1570 1 2 C 11.61 2.6898 0.74136 8.45897 3.22148 -48.0379 203.339 -45.5607 -1 4 -1 -0.0126096 0.0064322 0.00263822 -53.9104 -47.3354 -14.0586 
3191 1 4 H 1.008 0.03 8.30269 4.00171 6.37804 154.641 -93.4381 152.725 3 -2 3 -0.0184653 -0.00283852 0.00831447 0.878144 18.9255 -3.85124 
11678 1 11 D 0.4 -1.8447 4.78549 5.15091 4.06592 151.123 -92.2889 150.413 3 -2 3 0.0029431 -0.00281271 0.000297962 -0.996137 0.426917 -0.828726 
1579 1 4 H 1.008 0.03 3.26388 11.2893 2.64087 -45.5154 206.169 -46.1413 -1 4 -1 0.0201632 0.0205373 0.00550783 9.57343 5.12174 3.16162 
11069 1 12 D 0.4 -2.5798 0.736897 8.46437 3.22788 -48.0424 203.344 -45.5543 -1 4 -1 -0.0153544 0.0068178 0.00667927 4.64265 -4.69549 -12.8417 
11072 1 11 D 0.4 -1.8447 4.56018 9.59203 2.71206 -44.2191 204.472 -46.0701 -1 4 -1 0.00231625 0.00694751 -0.000648294 3.23542 -1.76516 2.98427 
6360 1 4 H 1.008 0.03 5.4947 1.2128 7.1859 103.053 147.372 7.1859 2 3 0 -0.00878492 -0.00762018 -0.000681797 8.45454 1.42152 -25.0848 
6356 1 3 C 11.61 2.4422 4.17656 2.1433 3.37149 101.735 148.303 3.37149 2 3 0 0.0022319 0.00281912 -0.000263809 -3.82389 5.66869 -11.1178 
6368 1 4 H 1.008 0.03 6.95441 1.33485 6.20149 104.513 147.495 6.20149 2 3 0 -0.00158034 -0.0162607 0.00280123 21.3489 13.5247 -6.41524 
11677 1 13 D 0.4 -2.3022 5.94991 5.94244 3.82617 152.288 -91.4974 150.173 3 -2 3 0.00279747 -0.00666096 0.000333461 -0.15183 0.989175 0.45265 
3678 1 4 H 1.008 0.03 1.88979 4.3078 1.58449 1.88979 -93.132 196.713 0 -2 4 -0.00425531 0.0129318 0.00844686 -3.66568 3.67881 -8.83217 
1058 1 2 C 11.61 2.6898 6.02776 8.30136 7.38655 54.807 154.461 7.38655 1 3 0 -0.0104981 -0.002721 -7.55659e-05 3.72977 14.5933 -4.73709 
3194 1 4 H 1.008 0.03 8.02366 6.20641 4.10255 154.362 -91.2334 150.449 3 -2 3 -0.0103362 0.0103495 0.0108045 -1.98124 -7.62386 5.2967 
1575 1 4 H 1.008 0.03 0.957654 7.43398 2.84352 -47.8216 202.314 -45.9387 -1 4 -1 -0.00163929 0.0090301 0.00623016 4.06884 16.1242 6.04835 
1577 1 4 H 1.008 0.03 1.59037 10.0364 1.48903 -47.1889 204.916 -47.2932 -1 4 -1 0.0218729 0.0213334 0.014646 -10.9646 9.4379 -16.4095 
6358 1 2 C 11.61 2.6898 3.95984 1.20901 1.28151 101.518 147.369 1.28151 2 3 0 -0.00502643 0.0016789 0.00480682 -26.3045 38.385 -8.44486 
248 1 4 H 1.008 0.03 8.07926 10.4004 3.88718 56.8585 -38.3195 -93.6772 1 -1 -2 0.00403523 -0.0110718 -0.00945795 7.59596 4.27402 16.1607 
3198 1 4 H 1.008 0.03 3.13751 5.11639 5.24653 149.475 -92.3234 151.593 3 -2 3 -0.00453403 0.00730048 -0.0152974 -5.54226 -4.52622 3.17158 
11070 1 13 D 0.4 -2.3022 2.35699 9.53117 2.03417 -46.4223 204.411 -46.748 -1 4 -1 -0.000662642 0.000947496 -0.00674427 1.03701 -0.346876 0.171004 
8759 1 4 H 1.008 0.03 1.37567 10.8528 4.92429 245.272 -86.587 53.7065 5 -2 1 0.0106431 -0.00642638 0.00470522 -29.6191 6.38721 55.0643 
11674 1 11 D 0.4 -1.8447 7.07625 5.63649 5.86529 153.414 -91.8033 152.212 3 -2 3 0.00414973 0.000241746 -0.00152968 2.82645 5.53806 -4.5073 
8312 1 4 H 1.008 0.03 8.214 2.24388 1.30513 252.11 2.24388 -47.4771 5 0 -1 0.00017218 -0.0193233 0.000473126 -14.3105 -12.4053 -7.56777 
3185 1 1 O 15.6 1.4447 7.08021 5.63727 5.85813 153.418 -91.8025 152.205 3 -2 3 0.00718015 -0.000907005 -0.00121114 11.8567 -12.1445 12.9883 
6357 1 1 O 15.6 1.4447 4.82123 1.40809 2.37189 102.38 147.568 2.37189 2 3 0 -0.00123489 0.00421366 -0.00431088 2.4632 -12.4047 2.08372 
8013 1 4 H 1.008 0.03 4.68762 5.47382 0.755516 102.246 54.1937 98.3199 2 1 2 -0.0345254 -0.00126598 -0.0132194 -7.28232 5.95967 0.560634 
3195 1 4 H 1.008 0.03 6.09143 5.95854 2.7353 152.429 -91.4813 149.082 3 -2 3 0.00433285 -0.00493755 0.0221724 2.54489 -5.68028 4.10927 
11679 1 12 D 0.4 -2.5798 3.90981 5.80271 4.97499 150.248 -91.6371 151.322 3 -2 3 0.0063877 0.0025663 0.00393677 -1.66685 3.39377 3.09236 
3190 1 2 C 11.61 2.6898 3.91253 5.81213 4.98143 150.25 -91.6277 151.328 3 -2 3 0.00664797 0.00272781 0.00307796 -5.53866 -11.863 -34.2934 
3196 1 4 H 1.008 0.03 5.72342 7.057 3.96777 152.061 -90.3828 150.314 3 -2 3 0.029867 0.000935741 -0.00540532 10.8178 -30.7485 3.13333 
11675 1 12 D 0.4 -2.5798 8.20811 5.1053 6.56215 154.546 -92.3345 152.909 3 -2 3 0.00460328 -0.00585699 -0.0135108 -5.66778 -4.69436 -4.24906 
6354 1 2 C 11.61 2.6898 6.01537 0.862039 6.25838 103.574 147.022 6.25838 2 3 0 -0.00780558 -0.0111697 0.00529234 -21.7862 -37.401 28.148 
8016 1 4 H 1.008 0.03 7.66581 7.40723 1.25876 105.224 56.1271 98.8232 2 1 2 0.00571256 -0.00323252 0.00995047 -29.4744 -25.8952 30.0964 
6361 1 4 H 1.008 0.03 6.07994 2.71517 4.23621 103.639 148.875 4.23621 2 3 0 0.00521927 0.0512075 -0.0398775 -19.7757 -12.8964 9.09108 
12866 1 11 D 0.4 -1.8447 4.82431 1.40563 2.3667 102.383 147.565 2.3667 2 3 0 -0.000797757 0.00383929 -0.00441434 -1.01875 3.96955 1.29912 
12863 1 12 D 0.4 -2.5798 6.01595 0.853961 6.2568 103.575 147.014 6.2568 2 3 0 -0.0102029 -0.00937714 0.00920925 -6.155 8.19079 2.61104 
8753 1 1 O 15.6 1.4447 0.726205 11.8815 6.75579 244.623 -85.5583 55.538 5 -2 1 0.000738158 0.00395649 0.000176861 13.5902 26.6772 16.3766 
8768 1 4 H 1.008 0.03 1.20905 10.0853 6.56046 245.105 -87.3545 55.3427 5 -2 1 -0.00730765 0.0102537 0.0153809 10.1604 -26.4059 6.73158 
8754 1 2 C 11.61 2.6898 0.755333 10.7863 5.92121 244.652 -86.6535 54.7034 5 -2 1 0.000355144 0.00387829 0.0118137 50.9972 12.7497 -53.8216 
13763 1 12 D 0.4 -2.5798 0.746125 10.79 5.9294 244.643 -86.6498 54.7116 5 -2 1 0.00159646 0.00714446 0.0130895 8.64215 0.957395 0.58322 
6353 1 1 O 15.6 1.4447 5.21223 0.984886 5.088 102.771 147.145 5.088 2 3 0 0.00113422 0.000117405 -0.00561453 4.26134 -1.76002 10.4371 
13481 1 12 D 0.4 -2.5798 8.4314 7.86544 0.757945 105.99 56.5853 98.3224 2 1 2 0.00446108 -0.00433494 -0.00450086 4.35479 1.1069 -1.25118 
8002 1 2 C 11.61 2.6898 8.42796 7.86233 0.759697 105.987 56.5822 98.3241 2 1 2 0.00618274 -0.00485783 -0.00359815 17.8341 34.4168 -39.6699 
11859 1 12 D 0.4 -2.5798 0.797294 4.41366 1.57979 0.797294 -93.0261 196.709 0 -2 4 -0.00112668 0.0007691 0.002876 0.191583 0.0189273 2.29181 
256 1 4 H 1.008 0.03 8.47086 10.997 2.38348 57.2501 -37.7229 -95.1809 1 -1 -2 -0.00522297 -0.0137314 0.00867928 12.2241 4.2822 -2.28226 
8847 1 4 H 1.008 0.03 1.27829 4.24509 5.97513 98.8369 199.125 5.97513 2 4 0 0.0106626 0.0111276 0.0138565 11.55 20.8675 -0.592549 
1057 1 1 O 15.6 1.4447 6.24617 9.74803 7.57878 55.0255 155.908 7.57878 1 3 0 0.00101772 0.00514244 -0.000339874 -3.66547 -41.0103 -6.71423 
10876 1 11 D 0.4 -1.8447 6.24913 9.74936 7.58138 55.0284 155.909 7.58138 1 3 0 0.00151572 0.00499163 -0.000868617 2.9658 -3.80265 -0.362131 
1067 1 4 H 1.008 0.03 4.47052 12.3408 7.36296 53.2498 158.5 7.36296 1 3 0 0.00884438 0.0158063 0.0246879 -24.3705 17.0977 -9.85938 
1646 1 4 H 1.008 0.03 4.56106 3.70632 9.24478 53.3403 -93.7335 -88.3196 1 -2 -2 0.00790203 0.0123863 0.0113885 -3.00128 4.02642 -2.54347 
6224 1 4 H 1.008 0.03 5.58814 3.46954 11.9563 200.705 3.46954 -183.173 4 0 -4 0.0152168 0.0118192 0.0248808 0.183629 -2.58166 1.82581 
6216 1 4 H 1.008 0.03 7.29429 3.83834 12.0244 202.411 3.83834 -183.104 4 0 -4 0.00253242 0.0146752 0.00836297 14.9239 4.45356 -14.9041 
1065 1 4 H 1.008 0.03 4.60666 10.2499 8.84916 53.3859 156.41 8.84916 1 3 0 -0.0136999 0.0182602 -0.00991259 20.5772 4.58218 -27.2115 
1405 1 4 H 1.008 0.03 6.2013 8.20014 10.4286 6.2013 105.64 59.2108 0 2 1 0.0221448 -0.00828061 -0.00473946 -0.0575594 1.02165 16.3804 
1404 1 4 H 1.008 0.03 4.21778 10.7357 11.1462 4.21778 108.176 59.9284 0 2 1 0.0201966 -0.00507232 0.0107348 -4.71483 -14.3978 -1.01351 
1634 1 2 C 11.61 2.6898 1.4954 7.37254 9.6339 50.2747 -90.0673 -87.9305 1 -2 -2 0.00603908 0.00321774 -0.00333102 9.12001 17.2771 0.0234181 
11006 1 11 D 0.4 -1.8447 5.15876 9.12216 12.0273 5.15876 106.562 60.8095 0 2 1 0.00246162 -0.00446108 -0.00381815 -2.1685 -2.85768 1.76235 
1633 1 1 O 15.6 1.4447 0.919389 6.39791 10.3985 49.6987 -91.0419 -87.166 1 -2 -2 -0.000139114 0.00234009 -0.00113012 -7.39933 -19.8413 10.0827 
14122 2 18 D 0.4 -1.3442 8.34686 2.02994 7.98315 8.34686 50.7498 56.7654 0 1 1 0.00313787 0.0099565 0.00318044 1.20143 -1.84248 -0.484914 
14644 2 16 D 0.4 -2.0238 2.74975 1.70769 11.5684 -46.0295 1.70769 -85.996 -1 0 -2 -0.00529775 0.00139358 -0.00357315 1.88717 -0.343016 2.72673 
12007 1 13 D 0.4 -2.3022 0.721668 11.5922 11.6405 -96.8369 -85.8476 11.6405 -2 -2 0 -0.00257431 0.00673471 0.00659426 6.38322 1.14101 -0.629392 
10075 2 7 O 15.6 1.6345 2.7529 1.70027 11.569 -46.0264 1.70027 -85.9954 -1 0 -2 -0.00456693 -0.00025786 -0.000395007 -20.5246 -34.2706 20.4602 
10921 1 13 D 0.4 -2.3022 3.45764 6.1954 13.7604 101.016 6.1954 62.5426 2 0 1 0.00917596 -0.0143671 -0.00167605 -0.0815925 3.63019 -0.714966 
1402 1 4 H 1.008 0.03 4.42964 11.1487 13.5782 4.42964 108.589 62.3604 0 2 1 -0.0108289 -0.00224448 0.0025406 -5.90323 -8.13233 12.7155 
6209 1 1 O 15.6 1.4447 6.50725 3.58445 13.865 201.624 3.58445 -181.264 4 0 -4 0.00352366 -0.00194687 -0.000272687 -1.04512 5.13093 -11.2955 
1640 1 4 H 1.008 0.03 1.63052 8.27679 10.2195 50.4098 -89.163 -87.345 1 -2 -2 -0.0193276 -0.00398689 -0.0169559 -5.1984 0.836216 1.38788 
12808 1 11 D 0.4 -1.8447 6.49858 3.59168 13.866 201.616 3.59168 -181.263 4 0 -4 0.00311437 -0.00160833 -0.00128362 -0.331842 -0.917484 1.50459 
1401 1 4 H 1.008 0.03 4.77575 12.462 12.5923 4.77575 109.902 61.3745 0 2 1 0.00697606 0.0123175 0.0224953 18.6937 -0.0436278 -3.75635 
77 1 4 H 1.008 0.03 6.80052 7.23841 13.7146 -90.7581 7.23841 111.279 -2 0 2 -0.000410462 0.00151436 0.00108241 2.70301 -2.63211 -2.93802 
1643 1 4 H 1.008 0.03 1.82962 3.31096 9.34113 50.6089 -94.1288 -88.2233 1 -2 -2 -0.0105897 -0.00291292 -0.0167376 -12.7327 38.3795 -2.6698 
4079 1 4 H 1.008 0.03 1.57884 11.9859 9.21236 -95.9797 -85.4539 9.21236 -2 -2 0 0.0244261 0.00153076 0.0208423 9.45866 -1.24764 2.93465 
1177 1 4 H 1.008 0.03 3.91781 3.98588 13.6868 101.476 3.98588 62.469 2 0 1 -0.016691 0.0259166 0.00781654 6.6984 -6.31746 -15.6906 
10879 1 13 D 0.4 -2.3022 5.36881 11.9036 7.7056 54.1481 158.063 7.7056 1 3 0 0.00394634 -0.002273 -0.00778822 -3.72219 0.152296 4.72503 
1635 1 3 C 11.61 2.4422 0.664298 5.22604 9.64838 49.4436 -92.2138 -87.916 1 -2 -2 -0.00865162 0.00455435 0.00149524 -21.9794 -21.0456 11.4608 
1403 1 4 H 1.008 0.03 5.91404 10.7423 10.874 5.91404 108.182 59.6562 0 2 1 -0.0231798 0.00464037 0.02179 -18.8621 -17.5157 32.8338 
12008 1 11 D 0.4 -1.8447 1.66283 10.7688 10.8928 -95.8957 -86.671 10.8928 -2 -2 0 -0.010087 0.000858829 9.82382e-05 1.04114 -2.51611 6.38714 
1172 1 3 C 11.61 2.4422 3.50678 6.19622 13.7107 101.065 6.19622 62.4929 2 0 1 0.00850348 -0.015285 -0.00121488 21.7914 -9.99419 15.2847 
11003 1 12 D 0.4 -2.5798 6.7036 12.0384 14.5051 6.7036 109.478 63.2873 0 2 1 0.00908957 -0.00834753 -0.00330667 7.21429 -1.34569 0.859547 
1644 1 4 H 1.008 0.03 2.57072 4.29745 10.5059 51.35 -93.1423 -87.0586 1 -2 -2 0.00675276 0.0335279 0.00108176 -31.9873 19.4418 -29.5969 
5641 1 4 H 1.008 0.03 8.42267 12.102 11.0475 -235.474 206.982 59.8297 -5 4 1 0.0169863 0.00835157 0.0135482 -15.9198 0.0278806 8.01924 
1638 1 2 C 11.61 2.6898 4.02111 4.01073 8.33862 52.8004 -93.4291 -89.2258 1 -2 -2 0.00364413 0.00209308 0.00685839 -14.8077 -7.68547 3.47734 
4068 1 3 C 11.61 2.4422 0.71846 11.5943 11.6337 -96.8401 -85.8455 11.6337 -2 -2 0 -0.00136093 0.00425117 0.00263357 15.5747 7.87159 -11.0357 
12009 1 12 D 0.4 -2.5798 1.47051 10.9437 9.56326 -96.0881 -86.4961 9.56326 -2 -2 0 0.00124698 0.00401049 0.00119565 -2.93571 0.32673 -2.08823 
1636 1 3 C 11.61 2.4422 1.96695 4.43077 9.52998 50.7462 -93.009 -88.0344 1 -2 -2 -0.000572442 0.00615547 -0.00208023 42.6048 -83.4018 38.6087 
1393 1 1 O 15.6 1.4447 6.5139 11.2719 13.353 6.5139 108.712 62.1353 0 2 1 0.00939954 0.0010564 -0.000592651 -29.8817 15.9339 -0.655403 
11096 1 11 D 0.4 -1.8447 2.89894 4.88131 8.5814 51.6782 -92.5585 -88.983 1 -2 -2 -0.000233981 -0.0054723 0.0021644 1.53411 1.82972 4.52795 
1072 1 4 H 1.008 0.03 5.28752 7.90942 8.07264 54.0668 154.069 8.07264 1 3 0 0.00795404 -0.00314124 0.019433 -7.65424 0.453109 -0.364021 
3192 1 4 H 1.008 0.03 8.02791 5.10578 7.6554 154.366 -92.334 154.002 3 -2 3 0.0241607 -0.00959285 0.0307598 1.25505 8.57946 -12.857 
1397 1 1 O 15.6 1.4447 5.16023 9.12982 12.0207 5.16023 106.57 60.8029 0 2 1 0.00376877 -0.0052324 -0.00357648 4.30093 -22.2604 48.6559 
1061 1 1 O 15.6 1.4447 5.61045 12.4141 9.02465 54.3897 158.574 9.02465 1 3 0 -0.00404697 0.00286908 0.00248897 9.32069 4.60135 -15.3385 
4073 1 4 H 1.008 0.03 0.863713 10.7891 13.5472 -96.6949 -86.6507 13.5472 -2 -2 0 -0.0252087 -0.00380045 0.0135941 -13.6985 -16.0302 10.9207 
1637 1 1 O 15.6 1.4447 2.8985 4.87482 8.58534 51.6778 -92.565 -88.9791 1 -2 -2 -0.000305439 -0.00325175 0.00330391 3.99822 6.13478 -23.0143 
1395 1 3 C 11.61 2.4422 5.15167 11.4635 12.8568 5.15167 108.903 61.6391 0 2 1 0.000954581 -0.000583498 0.00398713 31.9049 -41.1098 -15.7002 
6218 1 4 H 1.008 0.03 7.96177 2.22279 14.3711 203.079 2.22279 -180.758 4 0 -4 -0.0141681 -0.00388261 -0.0327478 -0.359467 14.0716 5.11977 
4078 1 4 H 1.008 0.03 2.1886 10.3591 9.16169 -95.37 -87.0807 9.16169 -2 -2 0 0.0270555 -0.0267975 -0.00841831 32.3125 -25.3548 -32.6383 
11094 1 13 D 0.4 -2.3022 0.671886 5.23079 9.65214 49.4512 -92.209 -87.9123 1 -2 -2 -0.00891797 0.00497203 0.00300632 4.07069 1.8145 3.9793 
11007 1 12 D 0.4 -2.5798 5.25903 8.2021 11.0151 5.25903 105.642 59.7973 0 2 1 0.00677414 0.00764381 0.00114248 -2.12296 3.56295 -2.27104 
11002 1 11 D 0.4 -1.8447 6.52009 11.271 13.3563 6.52009 108.711 62.1385 0 2 1 0.00944933 -0.00109557 -0.000185708 -2.84015 0.60276 -5.34905 
1180 1 4 H 1.008 0.03 4.51494 6.50105 13.4036 102.074 6.50105 62.1859 2 0 1 0.00544629 0.0132477 -0.0107027 -8.52446 6.33341 -5.70953 
10923 1 12 D 0.4 -2.5798 3.17407 8.46254 14.5222 100.733 8.46254 63.3044 2 0 1 0.00894009 -0.00606166 -0.00281139 -1.1225 -3.8788 4.32116 
1394 1 2 C 11.61 2.6898 6.70377 12.0357 14.5122 6.70377 109.476 63.2944 0 2 1 0.00938198 -0.00899408 -0.00298612 28.1489 18.3277 -4.88598 
1183 1 4 H 1.008 0.03 2.78527 8.70484 13.5964 100.344 8.70484 62.3786 2 0 1 0.000832776 0.0199886 0.00121211 -23.4655 14.5632 -38.9111 
12006 1 13 D 0.4 -2.3022 1.1173 11.7064 13.0931 -96.4413 -85.7334 13.0931 -2 -2 0 0.00321195 -0.00122331 -0.00315807 0.727961 -1.62438 14.0066 
11095 1 13 D 0.4 -2.3022 1.96766 4.44839 9.52966 50.747 -92.9914 -88.0348 1 -2 -2 -0.00291815 0.00616337 -0.00416123 2.05635 -5.48157 2.63208 
4069 1 1 O 15.6 1.4447 1.65869 10.7721 10.8914 -95.8999 -86.6677 10.8914 -2 -2 0 -0.0105009 -5.00599e-05 0.00153221 -23.9825 18.2185 41.0288 
10086 2 9 F 18.6 1.274 4.93497 0.75272 9.16075 -43.8443 0.75272 -88.4037 -1 0 -2 0.00221577 -0.000719915 -0.0023832 14.3105 -11.9587 -2.38096 
1648 1 4 H 1.008 0.03 0.75727 7.52252 8.86054 49.5366 -89.9173 -88.7039 1 -2 -2 -0.0106051 -0.0169399 -0.00686033 7.50077 14.8788 -14.5968 
6210 1 2 C 11.61 2.6898 6.53092 3.23899 12.4571 201.648 3.23899 -182.672 4 0 -4 -3.61588e-05 0.000170336 -0.00715566 -13.3225 44.6003 39.2637 
6215 1 4 H 1.008 0.03 6.73482 2.23814 12.4082 201.852 2.23814 -182.721 4 0 -4 -0.00809669 -0.01967 -0.0142676 11.6009 -38.6909 -11.3077 
4067 1 3 C 11.61 2.4422 1.11462 11.7102 13.1003 -96.444 -85.7296 13.1003 -2 -2 0 -0.000346772 0.000988879 0.000412602 40.1332 5.74926 10.2878 
12809 1 12 D 0.4 -2.5798 6.52763 3.25443 12.4615 201.645 3.25443 -182.667 4 0 -4 0.00039953 -2.78634e-05 -0.00955869 -2.75427 0.13912 4.55333 
4070 1 2 C 11.61 2.6898 1.46336 10.9529 9.5508 -96.0952 -86.4868 9.5508 -2 -2 0 0.00141716 0.00356058 -4.79824e-05 -16.5961 33.2869 -6.58134 
11097 1 12 D 0.4 -2.5798 4.01815 4.01732 8.33626 52.7974 -93.4225 -89.2282 1 -2 -2 0.00442364 0.00412781 0.008711 2.25011 1.40672 1.17574 
5639 1 4 H 1.008 0.03 8.38089 10.5039 9.56003 -235.516 205.383 58.3422 -5 4 1 0.00379684 0.00354557 0.0228002 0.162178 -9.18048 -11.3069 
1396 1 3 C 11.61 2.4422 5.13179 10.4428 11.6602 5.13179 107.883 60.4425 0 2 1 -0.00249844 -0.000651343 0.00130625 10.7788 91.0258 -41.905 
10880 1 11 D 0.4 -1.8447 5.60944 12.4135 9.0322 54.3887 158.573 9.0322 1 3 0 -0.00309041 0.00321468 0.00109544 6.06435 0.0564652 -1.04579 
11005 1 13 D 0.4 -2.3022 5.13569 10.4325 11.6738 5.13569 107.872 60.456 0 2 1 -0.00343222 -0.000572719 -0.00101851 1.07539 3.07927 -2.32527 
1181 1 4 H 1.008 0.03 4.30619 8.78733 14.4097 101.865 8.78733 63.1919 2 0 1 0.0136891 -0.0149975 0.0171876 -37.0713 -6.45342 11.0466 
9184 1 4 H 1.008 0.03 1.00142 4.3825 12.6128 98.56 4.3825 61.395 2 0 1 -0.00805384 0.0340495 0.00170657 14.8826 6.2112 -23.2883 
4075 1 4 H 1.008 0.03 0.706244 12.5829 11.1718 -96.8523 -84.8569 11.1718 -2 -2 0 0.00382137 0.0174847 -0.00972141 0.201526 3.86247 6.28525 
1174 1 2 C 11.61 2.6898 3.20423 8.50293 14.5066 100.763 8.50293 63.2889 2 0 1 0.00712404 -0.00553431 -0.00414609 42.0212 -17.8394 35.9098 
11004 1 13 D 0.4 -2.3022 5.15571 11.4568 12.861 5.15571 108.897 61.6432 0 2 1 0.00226709 -0.000762551 0.00177695 -1.23261 0.109398 -0.11807 
1179 1 4 H 1.008 0.03 2.8876 6.12952 12.8118 100.446 6.12952 61.594 2 0 1 -0.00842472 0.0127959 -0.00263383 -4.43767 2.95614 4.93295 
1406 1 4 H 1.008 0.03 4.56971 8.51393 10.2234 4.56971 105.954 59.0057 0 2 1 -0.0224204 0.00518246 -0.00173969 -7.45718 -5.25337 3.37905 
1639 1 4 H 1.008 0.03 2.48995 7.12514 9.27709 51.2692 -90.3147 -88.2873 1 -2 -2 0.0041439 -0.00815279 -0.00929886 -0.595692 -1.57234 -7.11441 
78 1 4 H 1.008 0.03 8.03169 8.4722 13.477 -89.5269 8.4722 111.041 -2 0 2 -0.00545989 -0.0233001 0.016555 -1.76341 6.78408 -5.2895 
11093 1 12 D 0.4 -2.5798 1.4949 7.37515 9.64627 50.2742 -90.0646 -87.9182 1 -2 -2 0.00689967 0.0032627 -0.00405789 -1.80954 2.30865 -1.90053 
1398 1 2 C 11.61 2.6898 5.26153 8.21036 11.0066 5.26153 105.65 59.7888 0 2 1 0.00661294 0.0075969 0.000780125 8.74378 16.5405 -59.7977 
1407 1 4 H 1.008 0.03 4.98388 7.2385 11.2689 4.98388 104.678 60.0511 0 2 1 0.0270355 0.00782718 -0.0110285 -4.20074 -27.9449 12.312 
9553 2 9 F 18.6 1.274 8.35261 2.02409 7.99197 8.35261 50.744 56.7742 0 1 1 0.00248725 0.0088766 0.0019205 16.5298 -6.5775 15.4192 
14655 2 18 D 0.4 -1.3442 4.93536 0.758076 9.14984 -43.8439 0.758076 -88.4146 -1 0 -2 0.00255334 4.5818e-06 -0.00100148 -0.12762 -5.37031 2.80884 
11092 1 11 D 0.4 -1.8447 0.921185 6.40063 10.4128 49.7005 -91.0392 -87.1516 1 -2 -2 0.000783866 0.00174475 -0.00253957 -0.406306 -1.57041 -1.2184 
4074 1 4 H 1.008 0.03 2.2119 11.7061 13.3284 -95.3467 -85.7337 13.3284 -2 -2 0 0.00749311 -0.00611148 0.0050021 -17.5145 4.58668 -21.4935 
70 1 2 C 11.61 2.6898 7.28615 8.09801 14.1675 -90.2724 8.09801 111.732 -2 0 2 0.00814062 -0.00623021 -0.000944376 -5.70732 -26.8775 9.60475 
10509 1 12 D 0.4 -2.5798 7.28515 8.08977 14.1702 -90.2734 8.08977 111.735 -2 0 2 0.00926795 -0.00611625 -0.00172613 -1.37628 -0.147851 0.452505 
6217 1 4 H 1.008 0.03 8.58965 3.80951 14.1991 203.707 3.80951 -180.93 4 0 -4 0.0130311 -0.0019019 -0.0148752 9.80739 15.4576 -18.4936 
10878 1 13 D 0.4 -2.3022 5.05631 10.4549 7.83092 53.8356 156.615 7.83092 1 3 0 0.00371678 0.000445107 0.00419506 1.49568 1.25279 2.42328 
1060 1 3 C 11.61 2.4422 5.36074 11.9081 7.70107 54.14 158.068 7.70107 1 3 0 0.00404909 -0.00212069 -0.00703861 10.1959 13.6019 15.499 
1059 1 3 C 11.61 2.4422 5.05182 10.4556 7.8249 53.8311 156.615 7.8249 1 3 0 0.00226302 0.0012467 0.00526939 -15.5245 -18.2958 39.6257 
79 1 4 H 1.008 0.03 6.47377 8.79279 14.3772 -91.0848 8.79279 111.942 -2 0 2 0.00381092 -0.0160887 0.0234701 3.47668 5.22718 -8.08917 
10920 1 13 D 0.4 -2.3022 3.76511 4.84983 14.378 101.324 4.84983 63.1602 2 0 1 0.00164177 0.00185918 -0.000252746 -2.97881 -1.46345 1.47809 
1171 1 3 C 11.61 2.4422 3.81594 4.81438 14.3537 101.375 4.81438 63.1359 2 0 1 0.00235176 0.00182497 -0.000150264 -28.48 18.7875 39.1833 
12810 1 13 D 0.4 -2.3022 7.72619 3.29133 14.557 202.843 3.29133 -180.572 4 0 -4 -0.0029425 -0.000496733 -0.00388822 -0.431889 -0.279676 -0.219058 
6211 1 3 C 11.61 2.4422 7.73297 3.29506 14.5516 202.85 3.29506 -180.577 4 0 -4 -0.00203583 -0.000778486 -0.00345506 -9.54463 -33.5596 9.26869 
1647 1 4 H 1.008 0.03 4.66613 4.60296 7.72858 53.4454 -92.8368 -89.8358 1 -2 -2 0.012977 0.0103637 -0.00591457 15.1397 4.81953 -5.80134 
1645 1 4 H 1.008 0.03 3.81227 3.10857 7.73827 52.5916 -94.3312 -89.8262 1 -2 -2 0.0170846 -0.00470352 -0.0226776 -6.35189 7.37177 7.48794 
1063 1 4 H 1.008 0.03 6.90163 7.72037 7.64472 55.6809 153.88 7.64472 1 3 0 -0.030895 -0.0165616 0.00625567 10.3133 5.556 3.36943 
6255 1 4 H 1.008 0.03 4.19497 6.67384 18.6576 101.754 6.67384 67.4398 2 0 1 -0.0168181 -0.0263422 -0.00327165 -25.5891 -0.0567209 -20.8386 
10412 2 7 O 15.6 1.6345 5.67378 10.4335 18.3438 54.4531 107.873 67.126 1 2 1 -4.3695e-06 0.000472804 -0.00204958 35.1317 -25.9523 -8.15073 
10919 1 12 D 0.4 -2.5798 3.08725 3.43881 16.1604 100.646 3.43881 64.9426 2 0 1 0.0022525 -0.00979178 -0.000265917 0.409734 -0.242933 2.60979 
6219 1 4 H 1.008 0.03 7.4125 4.55913 16.2856 202.53 4.55913 -178.843 4 0 -4 -0.0176612 -0.0171603 -0.0302505 -7.40874 27.1617 1.56986 
4066 1 2 C 11.61 2.6898 0.861961 12.8001 15.1989 -96.6966 -84.6396 15.1989 -2 -2 0 0.000867982 0.00866859 -0.00548495 67.7156 17.0816 5.06821 
7874 1 2 C 11.61 2.6898 6.43743 7.53891 20.1046 55.2167 202.418 -175.024 1 4 -4 0.0100636 -0.00453698 -0.00145198 -21.1834 25.8441 0.987448 
9499 2 9 F 18.6 1.274 1.45227 1.28897 19.3799 50.2316 1.28897 116.944 1 0 2 -0.003029 0.00401355 -0.0041476 -1.56832 -16.8956 -7.13995 
6221 1 4 H 1.008 0.03 6.59334 3.76914 18.5313 201.711 3.76914 -176.598 4 0 -4 0.035385 0.0118078 -0.0123739 7.63695 -18.6807 0.226449 
7990 1 2 C 11.61 2.6898 7.90427 11.4204 20.9633 7.90427 -86.0194 -76.6011 0 -2 -2 -0.00634011 -7.26469e-05 -0.000117398 47.3424 40.7628 8.1134 
10922 1 11 D 0.4 -1.8447 2.9556 7.03445 14.8155 100.514 7.03445 63.5977 2 0 1 0.00210655 -0.000491209 -0.00134441 0.1643 0.663754 -1.84817 
14981 2 16 D 0.4 -2.0238 5.6745 10.4312 18.3383 54.4538 107.871 67.1205 1 2 1 -0.00023743 -0.00142948 -0.00299766 3.36233 1.39306 0.193271 
12813 1 12 D 0.4 -2.5798 7.01101 2.7843 18.1875 202.128 2.7843 -176.941 4 0 -4 0.00116096 0.00149483 -0.00475848 -0.640876 -1.15603 -1.54151 
13432 1 11 D 0.4 -1.8447 7.77834 7.24255 20.3693 56.5576 202.122 -174.76 1 4 -4 0.00932938 0.00491021 -0.00409943 1.08804 -0.685837 4.76466 
1400 1 4 H 1.008 0.03 6.03058 11.7576 15.3068 6.03058 109.197 64.089 0 2 1 0.00947015 -0.028978 0.0145787 -14.0174 8.00508 -0.376644 
10404 2 7 O 15.6 1.6345 1.36172 9.88905 19.1341 50.141 107.329 67.9164 1 2 1 -0.00338079 -0.00756284 0.00144723 16.4254 1.75741 -4.82209 
14972 2 15 D 0.4 -1.2271 2.57245 10.192 19.8766 51.3517 107.632 68.6589 1 2 1 -0.00345241 0.000999309 0.00327485 -1.39693 -5.88646 -4.73815 
1175 1 4 H 1.008 0.03 4.15273 3.4672 16.501 101.711 3.4672 65.2832 2 0 1 -0.0055344 -0.0272474 -0.00259181 0.50653 0.313531 8.22603 
9497 2 7 O 15.6 1.6345 4.17899 0.75005 18.3147 52.9583 0.75005 115.879 1 0 2 0.00278661 0.00284063 0.00338564 0.0704483 39.8905 -9.35049 
1173 1 1 O 15.6 1.4447 3.05313 7.09025 14.76 100.612 7.09025 63.5422 2 0 1 0.00227601 -0.000209227 -0.000447729 -0.465136 2.50191 -13.1727 
6244 1 3 C 11.61 2.4422 1.44918 6.12007 18.4951 99.0078 6.12007 67.2774 2 0 1 0.00173097 -0.00157793 0.00401388 9.99007 -7.7129 -14.2544 
10508 1 11 D 0.4 -1.8447 7.8868 7.67692 15.3903 -89.6718 7.67692 112.955 -2 0 2 0.0061961 0.00547138 -0.0031708 -1.49968 1.01307 -2.04798 
68 1 3 C 11.61 2.4422 8.40707 8.8805 15.9896 -89.1515 8.8805 113.554 -2 0 2 -0.00209025 -0.00152795 -0.00504782 -11.8206 -18.719 -7.56578 
9182 1 4 H 1.008 0.03 0.935047 8.91323 16.7241 98.4936 8.91323 65.5063 2 0 1 0.00327809 0.0155128 -0.00395222 3.45222 -5.03595 18.1726 
10408 2 9 F 18.6 1.274 1.47157 12.0725 21.353 50.2509 109.512 70.1352 1 2 1 0.000960763 0.00422637 0.00319977 7.71588 -27.8021 -10.6116 
14066 2 16 D 0.4 -2.0238 4.18054 0.749984 18.3081 52.9598 0.749984 115.872 1 0 2 0.00509509 0.00365407 0.0022463 -2.13081 -1.88132 1.40995 