ITEM: TIMESTEP
5000000
ITEM: NUMBER OF ATOMS
15372
ITEM: BOX BOUNDS pp pp pp
3.1837868380704393e-01 4.9738621316192024e+01
3.1765217768984755e-01 4.9780347822312713e+01
3.0338504412521772e-01 4.9724614955871722e+01
ITEM: ATOMS id mol type element mass q x y z xu yu zu ix iy iz vx vy vz fx fy fz 
6757 1 1 O 15.6 1.4447 5.17848 5.28343 4.22027 5.17848 -44.1793 -45.201 0 -1 -1 -0.00422849 -0.00549849 -0.00419454 -12.7745 4.61386 36.3169 
13481 1 11 D 0.4 -1.8447 5.1818 5.27982 4.21282 5.1818 -44.1829 -45.2084 0 -1 -1 -0.00474298 -0.0051876 -0.0038078 -0.550292 0.458046 0.765819 
13477 1 11 D 0.4 -1.8447 7.32762 3.95503 6.04386 7.32762 -45.5077 -43.3774 0 -1 -1 -0.00349613 -0.0114558 0.00034267 0.421477 -2.1013 -1.91238 
6753 1 1 O 15.6 1.4447 7.32561 3.95793 6.03862 7.32561 -45.5048 -43.3826 0 -1 -1 -0.00342396 -0.010553 0.00109641 4.4264 -3.02831 -3.33322 
13479 1 13 D 0.4 -2.3022 6.20402 4.67503 6.4478 6.20402 -44.7877 -42.9734 0 -1 -1 0.000461715 0.00153105 -0.00241696 0.225063 0.321599 0.841056 
6755 1 3 C 11.61 2.4422 6.1987 4.67627 6.45292 6.1987 -44.7864 -42.9683 0 -1 -1 0.0012662 0.00171449 -0.00270183 15.2486 -5.81303 -9.76992 
6761 1 4 H 1.008 0.03 6.59734 5.67503 6.55196 6.59734 -43.7877 -42.8693 0 -1 -1 -0.0063806 -0.0155288 -0.0121223 -16.7819 14.4449 8.78133 
12940 1 13 D 0.4 -2.3022 4.32596 4.26446 1.24595 152.587 53.7272 50.6672 3 1 1 -0.00592943 -0.00324353 0.00567523 -1.74763 2.69458 1.17523 
5316 1 3 C 11.61 2.4422 4.32818 4.27339 1.25842 152.589 53.7361 50.6797 3 1 1 -0.0053058 -0.00261821 0.00495838 -10.9626 48.7222 14.5827 
5324 1 4 H 1.008 0.03 3.94656 4.99511 2.07524 152.207 54.4578 51.4965 3 1 1 -0.00918756 -0.01051 0.00741496 21.4688 -29.5656 -26.2948 
6758 1 2 C 11.61 2.6898 4.71927 6.63001 4.46898 4.71927 -42.8327 -44.9522 0 -1 -1 0.00361287 0.000420897 0.00505575 10.6902 -26.1106 37.0066 
13482 1 12 D 0.4 -2.5798 4.72621 6.623 4.46479 4.72621 -42.8397 -44.9564 0 -1 -1 0.00303948 -0.000897042 0.00546632 -0.848522 -1.40806 1.94892 
5322 1 4 H 1.008 0.03 3.85479 2.25213 2.01886 152.116 51.7148 51.4401 3 1 1 0.0250156 0.00153216 0.0057371 -2.05407 2.25395 -1.56082 
12939 1 13 D 0.4 -2.3022 4.66825 2.91534 1.73541 152.929 52.378 51.1566 3 1 1 0.00472334 0.000711132 0.00614489 0.406988 0.778147 1.26359 
5315 1 3 C 11.61 2.4422 4.66978 2.91843 1.74849 152.931 52.3811 51.1697 3 1 1 0.00473087 0.00112754 0.00593528 50.5564 -10.2463 16.2498 
5321 1 4 H 1.008 0.03 5.24975 3.16957 2.65691 153.51 52.6323 52.0781 3 1 1 -0.00913283 -0.0305851 0.0124679 -12.0437 -10.4881 -2.48651 
14 1 4 H 1.008 0.03 1.55475 4.07887 4.89207 1.55475 53.5416 -44.5292 0 1 -1 0.0271085 0.00322984 -0.0106992 2.22568 17.4971 1.13133 
12937 1 11 D 0.4 -1.8447 5.68302 2.32609 0.885728 153.944 51.7888 50.307 3 1 1 -0.00145289 -0.00372097 -0.00165773 -1.61078 -0.852848 0.511158 
5313 1 1 O 15.6 1.4447 5.67866 2.32784 0.89295 153.939 51.7905 50.3142 3 1 1 -0.00107896 -0.00315513 -0.00120618 -5.74049 -36.1995 25.4446 
6756 1 3 C 11.61 2.4422 5.02116 4.49439 5.45805 5.02116 -44.9683 -43.9632 0 -1 -1 0.00136044 0.00213166 0.0077772 23.1989 9.98176 -13.5956 
13480 1 13 D 0.4 -2.3022 5.02998 4.49055 5.45047 5.02998 -44.9721 -43.9708 0 -1 -1 0.00175579 0.00259737 0.0085393 1.00733 1.21488 -0.173588 
6764 1 4 H 1.008 0.03 4.96202 3.45116 5.18062 4.96202 -46.0115 -44.2406 0 -1 -1 0.0104698 -0.00369468 -0.00190361 -1.04536 -5.93013 -1.28554 
6763 1 4 H 1.008 0.03 4.1412 4.69054 6.04963 4.1412 -44.7722 -43.3716 0 -1 -1 -0.0107196 -0.00380229 -0.0150202 -12.6091 5.51654 -8.68546 
13 1 4 H 1.008 0.03 1.76922 4.31643 3.13804 1.76922 53.7791 -46.2832 0 1 -1 0.0133391 -0.00458758 0.00867744 2.11635 -0.00387401 -4.0992 
6 1 2 C 11.61 2.6898 1.17402 3.83838 3.90845 1.17402 53.3011 -45.5128 0 1 -1 -0.00186745 -0.000243039 0.00197867 -23.5336 -53.6 25.6013 
10950 1 12 D 0.4 -2.5798 1.16707 3.83765 3.91249 1.16707 53.3003 -45.5087 0 1 -1 -0.0017476 0.000357845 0.00246943 -1.63383 -0.84824 0.216863 
12938 1 12 D 0.4 -2.5798 6.23032 1.11267 1.53584 154.491 50.5754 50.9571 3 1 1 0.00223541 -0.00366509 -0.000543936 -1.13442 2.50896 -3.08617 
5314 1 2 C 11.61 2.6898 6.22791 1.11324 1.54185 154.489 50.5759 50.9631 3 1 1 0.000684244 -0.00269759 4.08384e-05 31.3609 47.2 -62.5579 
5320 1 4 H 1.008 0.03 6.84948 1.40328 2.35584 155.11 50.866 51.7771 3 1 1 -0.0071885 -0.00217361 0.0184888 -2.16697 0.416788 21.3444 
6768 1 4 H 1.008 0.03 7.66463 4.91081 4.20788 7.66463 -44.5519 -45.2134 0 -1 -1 -0.00203132 -0.00993937 -0.00282622 -10.3595 4.79459 -11.7086 
5 1 1 O 15.6 1.4447 1.31149 2.368 4.02845 1.31149 51.8307 -45.3928 0 1 -1 0.00355018 0.000659569 -0.00500546 -22.968 4.80942 -81.647 
10949 1 11 D 0.4 -1.8447 1.30925 2.36949 4.03543 1.30925 51.8322 -45.3858 0 1 -1 0.00365616 0.00121557 -0.00460245 -0.82011 0.317997 -2.40141 
6411 1 4 H 1.008 0.03 4.10621 1.35364 6.32149 -144.155 50.8163 -43.0997 -3 1 -1 0.00784798 0.00814786 -0.00420692 -3.19764 -23.214 10.2852 
4 1 3 C 11.61 2.4422 0.992726 1.69378 2.68217 0.992726 51.1565 -46.7391 0 1 -1 -0.00133655 -0.000945495 -0.00114842 31.0233 81.5776 57.6947 
10948 1 13 D 0.4 -2.3022 0.996854 1.68881 2.69166 0.996854 51.1515 -46.7296 0 1 -1 -0.000826687 -0.000768142 -0.000691343 1.89868 4.6019 1.88349 
12 1 4 H 1.008 0.03 1.73237 2.11073 1.95573 1.73237 51.5734 -47.4655 0 1 -1 0.0180604 -0.00920395 -0.00793954 -16.6383 -9.83222 9.12481 
6765 1 4 H 1.008 0.03 3.72587 6.57238 4.87104 3.72587 -42.8903 -44.5502 0 -1 -1 -0.0323295 -0.00634613 -0.0182371 -13.7948 2.26862 -0.156562 
5319 1 4 H 1.008 0.03 5.45494 0.463444 1.8088 153.716 49.9261 51.23 3 1 1 -0.0117005 -0.00133731 0.00543212 -18.0787 -25.3873 10.6961 
6767 1 4 H 1.008 0.03 5.28734 7.13597 5.25703 5.28734 -42.3267 -44.1642 0 -1 -1 0.0122495 0.0231472 0.0308989 3.07144 -3.24446 -4.87041 
12941 1 11 D 0.4 -1.8447 3.28784 4.21795 0.332168 151.549 53.6806 49.7534 3 1 1 -0.00378602 -0.00701721 -0.00212772 -2.28909 0.544924 0.0162931 
6762 1 4 H 1.008 0.03 6.014 4.25782 7.43933 6.014 -45.2049 -41.9819 0 -1 -1 -0.00692905 0.0223649 -0.0140377 -10.2634 3.37855 1.73671 
14081 1 11 D 0.4 -1.8447 3.2315 5.10884 8.29019 3.2315 5.10884 8.29019 0 0 0 -0.000747967 0.00382784 -0.00197262 2.32026 1.10803 -0.828613 
8357 1 1 O 15.6 1.4447 3.22892 5.11395 8.29463 3.22892 5.11395 8.29463 0 0 0 -0.00044744 0.00367307 -0.00227436 2.34412 -26.476 -14.4346 
8366 1 4 H 1.008 0.03 2.99999 3.07024 7.66661 2.99999 3.07024 7.66661 0 0 0 -0.0390819 -0.00613805 0.0257287 -0.795844 1.48126 -5.07834 
6413 1 4 H 1.008 0.03 5.97127 1.71489 8.056 -142.289 51.1776 -41.3652 -3 1 -1 -0.0141895 0.00210522 -0.0121166 -8.22649 7.09403 0.743699 
6754 1 2 C 11.61 2.6898 8.15358 4.65915 5.12089 8.15358 -44.8035 -44.3003 0 -1 -1 0.00316513 0.00163116 -0.00506456 16.9291 -5.47935 13.61 
13478 1 12 D 0.4 -2.5798 8.15908 4.65804 5.12923 8.15908 -44.8047 -44.292 0 -1 -1 0.00322094 0.00227871 -0.00604912 -2.57088 -2.35909 0.52383 
8175 1 4 H 1.008 0.03 0.477316 6.97154 5.38132 -48.9429 -91.9539 -44.0399 -1 -2 -1 0.00270833 0.0204443 0.0296663 -9.37176 23.8972 7.87192 
6414 1 4 H 1.008 0.03 6.80947 0.827106 6.88174 -141.451 50.2898 -42.5395 -3 1 -1 0.0163237 -0.00827466 -0.0408422 6.38503 -4.26425 -23.9852 
6415 1 4 H 1.008 0.03 6.91936 0.406104 8.51571 -141.341 49.8688 -40.9055 -3 1 -1 0.0149515 -0.00837738 0.00680017 3.06896 -12.8588 10.312 
13350 1 12 D 0.4 -2.5798 6.22911 0.707625 7.75448 -142.032 50.1703 -41.6667 -3 1 -1 0.0135799 -0.00257259 -0.00130789 -1.11865 -0.34596 -1.10916 
5317 1 1 O 15.6 1.4447 3.29348 4.22192 0.337405 151.554 53.6846 49.7586 3 1 1 -0.00464538 -0.00733809 -0.00218157 -11.8991 8.59765 -20.6847 
6406 1 2 C 11.61 2.6898 6.22783 0.71184 7.75687 -142.033 50.1745 -41.6644 -3 1 -1 0.0126258 -0.00185994 -0.000792562 4.4577 21.8174 9.28329 
5323 1 4 H 1.008 0.03 5.23218 4.66583 0.757883 153.493 54.1285 50.1791 3 1 1 0.0253028 -0.00875396 -0.00380691 -7.54613 4.73624 9.52961 
6766 1 4 H 1.008 0.03 4.67648 7.27913 3.66661 4.67648 -42.1836 -45.7546 0 -1 -1 -0.0116934 0.00162443 -0.00928997 2.82942 15.7736 -34.0944 
5328 1 4 H 1.008 0.03 6.98635 0.637706 0.852975 155.247 50.1004 50.2742 3 1 1 -0.0169453 0.0011071 0.00680862 -25.5479 4.87825 12.4286 
5326 1 4 H 1.008 0.03 2.77261 6.2519 0.326642 151.033 55.7146 49.7479 3 1 1 0.0349908 -0.0111918 0.00682119 -10.0127 30.5307 30.8781 
6760 1 4 H 1.008 0.03 8.63691 5.57466 5.55128 8.63691 -43.888 -43.8699 0 -1 -1 0.0281101 0.00301575 0.010458 -5.13326 -19.0231 -7.03519 
8375 1 4 H 1.008 0.03 8.65337 6.61168 2.94447 8.65337 -42.851 52.3657 0 -1 1 -0.0073563 -0.0183686 0.000144581 1.07636 5.56468 -9.85297 
6877 1 4 H 1.008 0.03 10.4631 0.954274 6.92021 10.4631 -48.5084 -42.501 0 -1 -1 0.0190986 0.00687196 -0.0172925 7.06004 -8.20621 6.60385 
13519 1 11 D 0.4 -1.8447 10.4019 2.82844 3.5144 10.4019 -46.6343 -45.9068 0 -1 -1 -0.00518482 -0.00754301 -0.0024723 -0.324815 1.20797 -0.113343 
6865 1 1 O 15.6 1.4447 10.402 2.82422 3.51129 10.402 -46.6385 -45.9099 0 -1 -1 -0.0046199 -0.00784697 -0.00155311 21.4905 -6.20208 -2.60282 
13521 1 13 D 0.4 -2.3022 11.8325 2.7574 3.54846 11.8325 -46.7053 -45.8728 0 -1 -1 0.0140753 -0.00175274 -0.0052289 -5.31441 0.85578 1.44621 
6867 1 3 C 11.61 2.4422 11.8295 2.75582 3.54425 11.8295 -46.7069 -45.877 0 -1 -1 0.0138916 -0.0017442 -0.00521937 -31.6449 -9.81886 -20.6877 
6870 1 2 C 11.61 2.6898 10.6343 1.71356 6.17663 10.6343 -47.7491 -43.2446 0 -1 -1 -0.00775294 -0.000659308 0.00226183 -31.1925 27.0913 19.3048 
13524 1 12 D 0.4 -2.5798 10.6447 1.70792 6.18636 10.6447 -47.7548 -43.2349 0 -1 -1 -0.00588383 -8.00127e-05 0.00147046 -0.651915 -1.98777 -0.695915 
6878 1 4 H 1.008 0.03 9.85341 1.50219 5.43323 9.85341 -47.9605 -43.988 0 -1 -1 0.0058315 -0.00154159 -0.0112349 7.89585 5.13082 -0.420611 
6879 1 4 H 1.008 0.03 10.4219 2.69012 6.69679 10.4219 -46.7726 -42.7244 0 -1 -1 0.0215149 0.0130679 0.0210445 -0.283904 -21.9227 -13.3769 
6871 1 4 H 1.008 0.03 10.0244 2.92971 1.42927 10.0244 -46.533 -47.992 0 -1 -1 -0.0134538 -0.00517771 0.0157304 -11.077 -28.6401 40.5893 
7714 1 2 C 11.61 2.6898 16.534 3.04515 2.77043 65.9542 3.04515 -293.757 1 0 -6 0.0007459 -0.00535325 -0.00938713 -41.2959 3.93602 13.4273 
13838 1 12 D 0.4 -2.5798 16.5266 3.045 2.76802 65.9469 3.045 -293.759 1 0 -6 0.000777823 -0.0056862 -0.00973521 1.47214 0.276572 -4.0082 
7720 1 4 H 1.008 0.03 15.5058 2.92685 3.0997 64.926 2.92685 -293.428 1 0 -6 0.00495902 0.0163166 -0.00305501 0.877078 1.39456 11.3233 
13520 1 12 D 0.4 -2.5798 9.79976 2.27825 2.3636 9.79976 -47.1844 -47.0576 0 -1 -1 0.00705148 -0.00311107 0.00470242 -2.07791 2.15183 -3.16817 
6866 1 2 C 11.61 2.6898 9.79564 2.27031 2.36247 9.79564 -47.1924 -47.0588 0 -1 -1 0.00648891 -0.00304563 0.00558604 -18.7471 54.9442 -31.6642 
7719 1 4 H 1.008 0.03 16.5141 2.51271 1.90099 65.9344 2.51271 -294.626 1 0 -6 -0.00467153 0.0139958 0.010801 8.02097 -22.3181 -43.3365 
6872 1 4 H 1.008 0.03 8.71602 2.38876 2.64022 8.71602 -47.0739 -46.781 0 -1 -1 0.00787949 0.00433176 0.014529 20.4155 -5.41995 -15.2349 
6880 1 4 H 1.008 0.03 9.98351 1.24754 2.0986 9.98351 -48.2152 -47.3226 0 -1 -1 -0.0196243 -0.0185689 0.0112351 6.23135 -13.073 6.80902 
6875 1 4 H 1.008 0.03 11.9485 3.84325 5.43265 11.9485 -45.6194 -43.9886 0 -1 -1 -0.00597875 -0.00275594 0.00689075 -16.2165 0.972665 3.98155 
6085 1 1 O 15.6 1.4447 15.4242 5.32337 7.27306 64.8445 104.249 56.6943 1 2 1 -0.00188158 -0.00175869 -0.0045448 -26.8897 -14.0434 17.3718 
13229 1 11 D 0.4 -1.8447 15.4298 5.32765 7.2697 64.85 104.253 56.6909 1 2 1 -0.00140029 -0.00141257 -0.00364075 -3.10668 0.961693 1.19945 
6093 1 4 H 1.008 0.03 15.9428 3.88389 6.06318 65.363 102.809 55.4844 1 2 1 0.0160121 0.0328778 -0.0182429 12.9794 -12.6453 -8.25955 
13230 1 12 D 0.4 -2.5798 15.9397 4.95582 6.02774 65.36 103.881 55.449 1 2 1 -0.00251243 -0.0103289 0.00509652 -2.35247 -2.38167 1.14435 
6086 1 2 C 11.61 2.6898 15.9425 4.95101 6.02514 65.3627 103.876 55.4464 1 2 1 -0.00197903 -0.00902561 0.00495108 -42.7347 8.82013 -35.6418 
6759 1 4 H 1.008 0.03 8.872 3.882 4.8519 8.872 -45.5807 -44.5693 0 -1 -1 -0.00148922 -0.0193446 -0.00277389 3.66829 14.1776 3.55139 
6095 1 4 H 1.008 0.03 15.24 5.19416 5.15503 64.6602 104.12 54.5763 1 2 1 0.00114862 0.024683 -0.0250421 22.0352 -2.31584 30.1129 
8372 1 3 C 11.61 2.4422 12.5791 6.82828 3.71854 12.5791 -42.6344 53.1398 0 -1 1 -0.00161607 0.00172339 0.00312619 1.89567 19.2524 0.790582 
8379 1 4 H 1.008 0.03 13.222 5.97682 3.528 13.222 -43.4859 52.9492 0 -1 1 0.0126408 -0.0149426 0.000118326 -0.407831 -6.25891 -3.35067 
14085 1 13 D 0.4 -2.3022 11.3044 6.76418 2.89362 11.3044 -42.6985 52.3148 0 -1 1 -0.000597459 0.000240361 -0.00158567 -4.81209 1.84125 5.12005 
8371 1 3 C 11.61 2.4422 11.2972 6.76303 2.89529 11.2972 -42.6997 52.3165 0 -1 1 0.00275979 -0.000443856 -0.00417982 -6.1629 -30.3451 -20.2262 
14086 1 13 D 0.4 -2.3022 12.5737 6.83231 3.72073 12.5737 -42.6304 53.142 0 -1 1 0.00237053 0.000982775 -0.000842915 7.29977 -7.00846 -5.74899 
8378 1 4 H 1.008 0.03 10.8383 5.75363 2.98762 10.8383 -43.7091 52.4089 0 -1 1 -0.00821856 -0.00912199 -0.0315864 9.32118 11.7655 3.96834 
7713 1 1 O 15.6 1.4447 16.7869 4.37339 2.56868 66.2071 4.37339 -293.959 1 0 -6 0.00249907 0.00294379 -0.00546937 23.8256 36.7609 -11.8919 
13837 1 11 D 0.4 -1.8447 16.7787 4.37147 2.56633 66.1989 4.37147 -293.961 1 0 -6 0.00232812 0.00172543 -0.00776333 1.66862 -0.559813 0.560754 
8377 1 4 H 1.008 0.03 11.5074 6.82433 1.80781 11.5074 -42.6384 51.229 0 -1 1 -0.0353386 -0.0290049 -0.0032351 -2.43222 9.22965 12.5403 
13522 1 13 D 0.4 -2.3022 12.2479 2.90649 4.98492 12.2479 -46.5562 -44.4363 0 -1 -1 0.00492713 -0.00206333 0.00179173 1.21414 -0.0975709 -2.84625 
6868 1 3 C 11.61 2.4422 12.2499 2.90727 4.98395 12.2499 -46.5554 -44.4373 0 -1 -1 0.00502208 -0.00221813 0.00109393 61.2008 28.2248 -14.4609 
13523 1 11 D 0.4 -1.8447 11.9525 1.72716 5.70363 11.9525 -47.7355 -43.7176 0 -1 -1 0.00309734 -0.000363835 0.000947682 -2.03418 -0.360307 -1.0996 
6869 1 1 O 15.6 1.4447 11.9445 1.73089 5.70039 11.9445 -47.7318 -43.7208 0 -1 -1 0.00281544 0.000257501 0.000203639 14.6031 -5.7296 2.39768 
6873 1 4 H 1.008 0.03 12.2274 3.43995 2.81237 12.2274 -46.0227 -46.6089 0 -1 -1 -0.037851 -0.00422486 0.00948415 6.25885 14.0832 4.84211 
8380 1 4 H 1.008 0.03 12.3488 6.81963 4.77158 12.3488 -42.6431 54.1928 0 -1 1 0.0147633 -0.00892143 -0.00986326 -3.30922 -1.50405 8.77344 
6874 1 4 H 1.008 0.03 12.1311 1.80086 3.16365 12.1311 -47.6618 -46.2576 0 -1 -1 0.000546629 0.00801879 0.00931168 6.19264 -14.1138 0.550842 
359 1 4 H 1.008 0.03 13.4777 4.90353 0.975478 -35.9425 4.90353 0.975478 -1 0 0 0.0194769 0.0297983 -0.00343621 -9.69118 9.25208 18.0982 
6088 1 4 H 1.008 0.03 13.8338 1.68914 6.97903 63.254 100.615 56.4003 1 2 1 -0.0156817 0.0080724 -0.00541312 17.4255 13.3421 10.8751 
13228 1 13 D 0.4 -2.3022 14.2163 4.59137 7.69644 63.6365 103.517 57.1177 1 2 1 -0.00340953 0.000456895 -0.00645898 1.91476 6.47409 -0.0245866 
6084 1 3 C 11.61 2.4422 14.2072 4.59807 7.70729 63.6275 103.523 57.1285 1 2 1 -0.00318795 -0.000317914 -0.00744766 9.96148 71.1916 -5.80673 
6091 1 4 H 1.008 0.03 13.6146 5.42943 8.20155 63.0349 104.355 57.6228 1 2 1 -0.020393 -0.0297914 -0.0193619 6.4896 -23.2426 -21.6111 
6092 1 4 H 1.008 0.03 13.6323 4.14659 6.90504 63.0526 103.072 56.3263 1 2 1 -0.0427574 0.00962581 0.00274137 0.172705 3.77135 -0.0864551 
13225 1 11 D 0.4 -1.8447 15.3229 2.60735 8.4251 64.7432 101.533 57.8463 1 2 1 0.00324813 -0.00767811 -0.00109122 -1.19385 1.48185 0.0246292 
6081 1 1 O 15.6 1.4447 15.313 2.61112 8.42806 64.7332 101.537 57.8493 1 2 1 0.00405563 -0.00816471 0.000204272 -40.4603 -13.2319 -16.2191 
6082 1 2 C 11.61 2.6898 14.5762 1.50564 7.77388 63.9965 100.431 57.1951 1 2 1 -0.00662928 -0.00243549 -0.00218638 -4.80669 29.4577 19.8983 
13226 1 12 D 0.4 -2.5798 14.5849 1.50523 7.77587 64.0052 100.431 57.1971 1 2 1 -0.00633742 -0.00149928 -0.00253581 0.223369 2.63987 2.22863 
6096 1 4 H 1.008 0.03 14.0328 0.912272 8.50505 63.4531 99.8377 57.9263 1 2 1 -0.00171637 -0.00414689 -0.00313183 2.95357 -1.6143 4.22397 
368 1 4 H 1.008 0.03 14.1778 3.25283 1.22142 -35.2424 3.25283 1.22142 -1 0 0 -0.0122962 0.00118052 0.00146797 -17.1731 -3.91457 -0.399987 
11078 1 12 D 0.4 -2.5798 13.9235 4.04712 0.526632 -35.4968 4.04712 0.526632 -1 0 0 0.00294126 -0.00349519 0.00788788 -0.136651 0.224848 -4.36817 
6876 1 4 H 1.008 0.03 13.3704 3.13852 4.92002 13.3704 -46.3242 -44.5012 0 -1 -1 0.0106687 0.00395487 0.0371351 -33.8119 -23.2909 5.77808 
354 1 2 C 11.61 2.6898 13.9258 4.05233 0.525205 -35.4945 4.05233 0.525205 -1 0 0 0.00388044 -0.00218675 0.00633427 31.5893 -15.3044 -37.8646 
6087 1 4 H 1.008 0.03 15.3122 0.911587 7.33858 64.7325 99.837 56.7598 1 2 1 -0.0271402 0.0133554 0.00745565 20.073 -23.6855 -12.2633 
7721 1 4 H 1.008 0.03 18.0209 4.41944 0.918384 67.4411 4.41944 -295.609 1 0 -6 1.45517e-05 0.00748664 0.0266386 4.32056 15.2771 0.102429 
8747 1 4 H 1.008 0.03 21.2354 1.91215 0.659354 -77.6051 -47.5505 50.0806 -2 -1 1 -0.0200506 0.00883728 0.0361228 -19.5659 -25.705 18.8677 
10157 1 4 H 1.008 0.03 23.9737 5.17519 5.57438 23.9737 54.6379 104.417 0 1 2 0.0162119 -0.0166531 0.00384651 -24.3158 -18.4356 -8.08866 
14753 1 11 D 0.4 -1.8447 23.3739 3.24675 6.01902 23.3739 52.7095 104.861 0 1 2 -0.00447159 -0.00295627 -0.00146909 -0.84305 -1.65635 1.26899 
10149 1 1 O 15.6 1.4447 23.3695 3.24899 6.02777 23.3695 52.7117 104.87 0 1 2 -0.00535576 -0.00361585 -0.00145426 13.363 5.26231 -23.4297 
6094 1 4 H 1.008 0.03 16.9104 5.40213 5.83036 66.3306 104.328 55.2516 1 2 1 -0.00371691 -0.0125084 0.00900998 3.03532 -2.7415 -0.7083 
7728 1 4 H 1.008 0.03 17.1906 2.58965 3.42659 66.6108 2.58965 -293.101 1 0 -6 -0.00910013 0.018367 0.0140329 21.9848 -15.4155 27.3501 
8810 1 4 H 1.008 0.03 17.6889 4.22221 8.11512 17.6889 -45.2405 156.379 0 -1 3 -0.0101262 0.02192 0.0118449 -14.6487 32.378 5.2709 
10158 1 4 H 1.008 0.03 22.3168 4.79076 5.02514 22.3168 54.2535 103.868 0 1 2 0.000505822 0.0089481 0.0300211 -19.3149 4.48106 -4.88764 
8808 1 4 H 1.008 0.03 20.4309 5.73994 7.63986 20.4309 -43.7228 155.904 0 -1 3 0.00884149 -0.00898884 -0.00744231 2.46133 -5.49647 -9.7379 
5483 1 4 H 1.008 0.03 22.8507 2.01927 3.05015 22.8507 51.482 -194.635 0 1 -4 0.00800966 0.00968544 0.00435113 10.9264 12.569 -15.0732 
10155 1 4 H 1.008 0.03 22.8367 4.30548 7.64064 22.8367 53.7682 106.483 0 1 2 -0.00284156 0.00658527 -0.0340181 4.14161 19.5046 17.864 
8812 1 4 H 1.008 0.03 17.7152 2.09452 8.39884 17.7152 -47.3682 156.663 0 -1 3 -0.00287241 -0.0243254 -0.00368955 10.588 -6.15253 -21.9212 
5476 1 3 C 11.61 2.4422 22.5695 1.12893 3.5526 22.5695 50.5916 -194.132 0 1 -4 0.00138092 0.00202433 -0.0102533 -29.4757 -1.23886 25.8775 
13839 1 13 D 0.4 -2.3022 18.0931 4.63103 1.99123 67.5133 4.63103 -294.536 1 0 -6 0.00727665 -0.0013516 0.000512779 -1.1097 0.817438 2.78258 
7715 1 3 C 11.61 2.4422 18.0962 4.6351 1.99004 67.5164 4.6351 -294.537 1 0 -6 0.00653211 -0.00319036 -0.00152519 -12.4841 -31.5014 17.8165 
10156 1 4 H 1.008 0.03 21.6235 3.42171 6.71974 21.6235 52.8844 105.562 0 1 2 -0.0284634 -0.0050569 -0.0102435 -23.0722 3.77553 7.8439 
5485 1 4 H 1.008 0.03 19.3507 1.84556 3.7482 19.3507 51.3083 -193.937 0 1 -4 0.00519715 -0.0118484 0.0213316 2.61185 5.15258 0.440688 
7722 1 4 H 1.008 0.03 18.8133 3.8855 2.3735 68.2336 3.8855 -294.154 1 0 -6 0.00207544 -0.00207173 -0.0243223 -4.87994 9.60535 -4.69796 
13842 1 12 D 0.4 -2.5798 19.3508 7.04901 4.63119 68.7711 7.04901 -291.896 1 0 -6 -0.00585121 0.00382541 0.00252698 1.90994 -0.568328 -0.233946 
7718 1 2 C 11.61 2.6898 19.3532 7.0554 4.62615 68.7734 7.0554 -291.901 1 0 -6 -0.00569577 0.00186142 0.00179074 -8.55045 -29.7759 -34.3249 
7717 1 1 O 15.6 1.4447 18.7698 5.88966 3.96305 68.1901 5.88966 -292.564 1 0 -6 -0.00191733 -0.000544767 0.00568746 -5.15957 20.5072 -25.7086 
13841 1 11 D 0.4 -1.8447 18.7685 5.88363 3.96532 68.1888 5.88363 -292.562 1 0 -6 -0.00187231 0.000319307 0.00678357 -0.201094 1.24321 2.60135 
5487 1 4 H 1.008 0.03 20.5175 2.09551 5.00915 20.5175 51.5582 -192.676 0 1 -4 -0.00215994 0.0104798 -0.0226772 4.93214 1.3299 9.82612 
13840 1 13 D 0.4 -2.3022 18.5476 6.00443 2.48335 67.9678 6.00443 -294.044 1 0 -6 -0.00489386 -0.00566354 0.00672366 0.841353 -0.368959 3.42477 
7716 1 3 C 11.61 2.4422 18.556 6.01547 2.48257 67.9763 6.01547 -294.045 1 0 -6 -0.00494711 -0.00472835 0.00645059 -16.4373 23.472 23.3345 
7723 1 4 H 1.008 0.03 17.7385 6.74989 2.18443 67.1588 6.74989 -294.343 1 0 -6 -0.0293697 0.00446615 -0.016762 24.5702 -16.633 16.3239 
8803 1 3 C 11.61 2.4422 18.5235 3.86834 7.57747 18.5235 -45.5944 155.841 0 -1 3 -0.00617651 0.00356275 0.00216124 0.234399 -45.9277 -7.06846 
14247 1 13 D 0.4 -2.3022 18.5351 3.86188 7.57543 18.5351 -45.6008 155.839 0 -1 3 -0.00680858 0.00336211 0.00134351 1.11763 0.352126 1.21222 
8809 1 4 H 1.008 0.03 18.7346 4.28841 6.60117 18.7346 -45.1743 154.865 0 -1 3 -0.0234988 -0.0185124 -0.00375052 -4.61979 10.6091 -2.20944 
7727 1 4 H 1.008 0.03 19.3888 7.08959 5.69272 68.809 7.08959 -290.835 1 0 -6 -0.0290867 -0.0159484 -0.0156218 -5.2127 -12.0359 15.2871 
8801 1 1 O 15.6 1.4447 19.6671 3.84422 8.39403 19.6671 -45.6185 156.658 0 -1 3 -3.49425e-07 0.00200105 0.00373061 3.34403 16.8246 -6.38398 
14245 1 11 D 0.4 -1.8447 19.6746 3.84072 8.39866 19.6746 -45.622 156.662 0 -1 3 0.000243847 0.00138247 0.00335439 -1.97528 2.06466 -2.05378 
5478 1 2 C 11.61 2.6898 20.4028 2.06722 3.94621 20.4028 51.5299 -193.739 0 1 -4 -0.00622355 0.00141046 -0.00442339 -38.1946 -1.77477 21.4277 
14752 1 13 D 0.4 -2.3022 22.6054 3.39755 7.15977 22.6054 52.8602 106.002 0 1 2 0.000190496 0.000905524 -0.00264053 -1.33955 -1.40206 -0.511312 
10148 1 3 C 11.61 2.4422 22.5908 3.39945 7.16441 22.5908 52.8621 106.007 0 1 2 0.000178314 -0.00173931 -0.0016773 5.00766 -30.9738 -14.3209 
8802 1 2 C 11.61 2.6898 20.2197 5.15404 8.52562 20.2197 -44.3087 156.789 0 -1 3 -0.00237155 0.00328111 -0.00570952 -16.9419 -18.5172 27.4202 
14246 1 12 D 0.4 -2.5798 20.2152 5.1483 8.51975 20.2152 -44.3144 156.783 0 -1 3 -0.00476217 0.00420848 -0.00509834 4.38205 -1.02343 2.851 
5486 1 4 H 1.008 0.03 20.5825 3.04222 3.62996 20.5825 52.5049 -194.055 0 1 -4 0.0152708 0.00524799 0.0242239 15.2582 26.3446 -21.1286 
13002 1 12 D 0.4 -2.5798 20.3997 2.06191 3.93319 20.3997 51.5246 -193.752 0 1 -4 -0.00665555 0.000737725 -0.00419607 -0.0843859 -1.12265 1.5114 
10154 1 4 H 1.008 0.03 22.4719 1.2125 7.35381 22.4719 50.6752 106.196 0 1 2 0.0039752 0.00957999 -0.0253418 24.7329 33.3 22.2553 
14751 1 13 D 0.4 -2.3022 22.8033 2.12201 7.98829 22.8033 51.5847 106.831 0 1 2 -0.00253321 0.00573343 -0.00407759 0.582299 -0.670427 1.50296 
10147 1 3 C 11.61 2.4422 22.7913 2.1235 7.99247 22.7913 51.5862 106.835 0 1 2 -0.00149162 0.00547031 -0.00300219 -33.0409 -33.5422 -18.8814 
5477 1 1 O 15.6 1.4447 21.0991 1.01429 3.43769 21.0991 50.477 -194.247 0 1 -4 -0.00802944 0.000345314 0.00218885 61.1931 -40.9044 -30.3813 
14248 1 13 D 0.4 -2.3022 18.0659 2.41485 7.37371 18.0659 -47.0478 155.637 0 -1 3 0.00146604 -0.00623496 0.00324216 0.860269 1.09538 1.7253 
10159 1 4 H 1.008 0.03 23.7689 4.16227 4.18242 23.7689 53.625 103.025 0 1 2 0.00434241 -0.00351659 0.00441923 -11.9383 -2.3368 7.57296 
13001 1 11 D 0.4 -1.8447 21.093 1.01135 3.4331 21.093 50.474 -194.252 0 1 -4 -0.00809486 0.00113936 0.00156609 0.895961 -1.33291 -0.453001 
8804 1 3 C 11.61 2.4422 18.0508 2.41982 7.37854 18.0508 -47.0429 155.642 0 -1 3 0.00221459 -0.00642737 0.00321705 -8.71638 21.7562 43.9256 
8805 1 1 O 15.6 1.4447 19.1582 1.77063 6.91842 19.1582 -47.6921 155.182 0 -1 3 0.0039987 0.00130898 0.00397374 18.847 -33.7174 -6.92128 
8811 1 4 H 1.008 0.03 17.2118 2.32234 6.71332 17.2118 -47.1404 154.977 0 -1 3 -0.0230927 0.014514 1.09733e-05 -4.15115 1.38682 -8.21582 
7724 1 4 H 1.008 0.03 19.4686 6.37822 1.99305 68.8889 6.37822 -294.534 1 0 -6 0.00290894 0.00524576 -0.0133173 -2.03725 -7.85303 1.80326 
8746 1 4 H 1.008 0.03 20.9828 4.2961 1.09416 -77.8577 -45.1666 50.5154 -2 -1 1 -0.0256177 0.00184572 -0.0114548 -6.4432 -1.48705 -0.491095 
8748 1 4 H 1.008 0.03 22.863 2.58583 0.604116 -75.9774 -46.8769 50.0253 -2 -1 1 0.0127961 -0.0177906 0.0107517 -32.1817 6.41165 -8.40435 
14249 1 11 D 0.4 -1.8447 19.1631 1.76675 6.91424 19.1631 -47.6959 155.178 0 -1 3 0.0030731 0.000393074 0.00476805 0.619917 -2.2337 -1.19826 
8806 1 2 C 11.61 2.6898 18.8913 0.429357 6.51238 18.8913 -49.0333 154.776 0 -1 3 0.00206018 0.00383219 -0.00381962 -25.7569 4.23047 -69.0016 
14754 1 12 D 0.4 -2.5798 23.2845 4.36729 5.15 23.2845 53.83 103.992 0 1 2 -0.00354433 -0.00807146 -0.00863575 4.53551 1.15293 2.62198 
14250 1 12 D 0.4 -2.5798 18.8922 0.424722 6.51045 18.8922 -49.038 154.774 0 -1 3 0.00188134 0.00322727 -0.00377675 1.19529 0.42724 -1.93446 
10150 1 2 C 11.61 2.6898 23.2855 4.37422 5.1553 23.2855 53.8369 103.998 0 1 2 -0.00273322 -0.00875357 -0.00513463 58.4652 16.3079 5.42624 
7726 1 4 H 1.008 0.03 20.3673 7.07919 4.29254 69.7876 7.07919 -292.235 1 0 -6 -0.0194935 -0.0100878 0.00531397 15.089 5.7883 -3.44362 
10145 1 1 O 15.6 1.4447 24.1498 2.12656 8.42801 24.1498 51.5893 107.27 0 1 2 -0.00924223 0.00346 0.00549855 4.23419 -0.0417469 -2.18535 
14749 1 11 D 0.4 -1.8447 24.1577 2.12502 8.42842 24.1577 51.5877 107.271 0 1 2 -0.0101443 0.00271157 0.00616169 -2.35401 -1.47929 0.794777 
5484 1 4 H 1.008 0.03 22.6958 1.41145 4.6154 22.6958 50.8741 -193.07 0 1 -4 -0.020037 -0.0175662 -0.0173895 6.45806 -11.5343 -11.2073 
13000 1 13 D 0.4 -2.3022 22.5644 1.12124 3.5418 22.5644 50.5839 -194.143 0 1 -4 0.00178926 0.0029809 -0.0113551 -0.619275 3.7667 -0.45702 
8813 1 4 H 1.008 0.03 19.1296 0.376267 5.38504 19.1296 -49.0864 153.649 0 -1 3 0.00844312 -0.0404278 0.0342995 -5.92233 -4.907 48.2898 
11636 1 12 D 0.4 -2.5798 24.9453 5.3392 0.945189 74.3655 104.265 0.945189 1 2 0 0.00303396 0.00210767 -0.00091129 -1.45925 -1.21291 -0.0849877 
1848 1 4 H 1.008 0.03 23.8788 5.18641 1.21229 73.2991 104.112 1.21229 1 2 0 -0.00414918 0.0176124 0.0105421 9.64676 -0.120746 -8.25014 
6829 1 4 H 1.008 0.03 17.4427 7.38209 7.15555 -81.3978 56.8448 -42.2657 -2 1 -1 0.00966567 0.00566171 -0.00643479 8.01779 -6.84289 -8.52638 
1842 1 2 C 11.61 2.6898 24.9388 5.34167 0.93536 74.3591 104.267 0.93536 1 2 0 0.00262895 0.00197684 -0.00131797 -32.8901 1.35517 -26.2926 
6583 1 4 H 1.008 0.03 23.1211 7.16208 8.02055 23.1211 7.16208 -41.4007 0 0 -1 0.00805836 0.0250973 -0.0173911 23.1787 -3.3123 29.7909 
8367 1 4 H 1.008 0.03 2.04488 3.68192 9.05092 2.04488 3.68192 9.05092 0 0 0 0.00901981 0.00724117 -0.0131749 -3.61183 -13.4626 2.66853 
8358 1 2 C 11.61 2.6898 3.00184 3.70808 8.54428 3.00184 3.70808 8.54428 0 0 0 0.00162071 -0.00250111 -0.00317412 1.52097 38.1455 8.52121 
2460 1 4 H 1.008 0.03 4.20582 1.09464 11.7021 4.20582 100.02 11.7021 0 2 0 -0.00295671 0.00065948 -0.00901656 6.9944 2.36418 9.99502 
8363 1 4 H 1.008 0.03 1.9056 6.11898 9.43416 1.9056 6.11898 9.43416 0 0 0 -0.00958832 -0.00555249 -0.0167469 -9.85286 -4.73477 12.7661 
8365 1 4 H 1.008 0.03 3.80366 3.40718 9.2018 3.80366 3.40718 9.2018 0 0 0 0.00236737 0.00550225 -0.0260518 1.28527 -9.95152 6.25867 
8356 1 3 C 11.61 2.4422 2.97034 5.96313 9.38858 2.97034 5.96313 9.38858 0 0 0 0.00652918 0.00629101 -0.00301736 25.9246 22.4236 -7.31744 
14080 1 13 D 0.4 -2.3022 2.97489 5.9563 9.37586 2.97489 5.9563 9.37586 0 0 0 0.00616615 0.00583441 -0.00229566 0.0940038 2.41709 1.40041 
5062 1 2 C 11.61 2.6898 2.32224 5.9939 12.9831 51.7425 5.9939 111.826 1 0 2 0.00663591 0.00172181 0.000742195 -3.728 25.4932 33.4807 
5070 1 4 H 1.008 0.03 2.75131 6.55873 13.8394 52.1715 6.55873 112.682 1 0 2 0.000409654 0.00540295 -0.00238063 5.26087 -11.1712 -13.3058 
12846 1 12 D 0.4 -2.5798 2.32574 5.99355 12.9772 51.746 5.99355 111.82 1 0 2 0.00534721 0.00283944 0.00109589 -1.79392 0.0292238 -1.11326 
12845 1 11 D 0.4 -1.8447 2.05525 6.94085 11.9495 51.4755 6.94085 110.792 1 0 2 -0.000261176 -0.00244889 0.00332781 0.816237 -0.854323 1.60028 
5061 1 1 O 15.6 1.4447 2.05168 6.94439 11.9538 51.4719 6.94439 110.796 1 0 2 0.000210146 -0.00157889 0.00383667 -21.8459 4.59868 14.0876 
5071 1 4 H 1.008 0.03 3.05252 5.29183 12.6529 52.4728 5.29183 111.495 1 0 2 0.0094675 -0.00835334 0.00714746 8.234 -15.1255 -2.91256 
8364 1 4 H 1.008 0.03 3.43736 5.56511 10.3159 3.43736 5.56511 10.3159 0 0 0 -0.0173459 0.0065661 0.0117235 -12.5338 3.10262 -10.6756 
11866 1 13 D 0.4 -2.3022 4.89428 0.539634 12.3494 4.89428 99.465 12.3494 0 2 0 -0.0015856 0.00395568 0.000351351 1.29731 0.222832 2.90053 
2452 1 3 C 11.61 2.4422 4.90025 0.540968 12.355 4.90025 99.4664 12.355 0 2 0 -0.00218918 0.00382134 -0.00102323 8.13633 30.6599 -3.27753 
14082 1 12 D 0.4 -2.5798 3.0039 3.71272 8.54388 3.0039 3.71272 8.54388 0 0 0 0.00106398 -0.000542339 -0.00395714 0.138402 1.64546 -0.574727 
1166 1 4 H 1.008 0.03 6.56826 6.17011 9.75003 55.9885 -43.2926 158.014 1 -1 3 0.00177614 -0.00716743 0.0137204 -7.00653 3.88698 8.29491 
6775 1 4 H 1.008 0.03 8.35443 1.13567 15.4363 107.195 -48.327 -132.827 2 -1 -3 0.0100904 -0.00250977 -0.0148159 4.40815 3.58613 11.6182 
2459 1 4 H 1.008 0.03 5.55435 1.26192 12.874 5.55435 100.187 12.874 0 2 0 0.0177932 -0.017601 0.00645704 -18.9282 -3.86367 11.432 
1165 1 4 H 1.008 0.03 7.44449 6.22533 11.3249 56.8647 -43.2374 159.589 1 -1 3 -0.00402877 -0.00421462 0.0201362 -16.5194 1.97627 -13.3963 
5069 1 4 H 1.008 0.03 1.46772 5.52001 13.5039 50.888 5.52001 112.346 1 0 2 0.0166474 0.021069 0.0051528 2.87759 -0.370673 -19.251 
11382 1 12 D 0.4 -2.5798 6.56706 6.63623 10.7515 55.9873 -42.8265 159.015 1 -1 3 0.00921364 -0.00455131 0.00183799 0.0589854 -0.800611 2.6627 
1158 1 2 C 11.61 2.6898 6.57399 6.63511 10.7526 55.9942 -42.8276 159.016 1 -1 3 0.00877227 -0.00375912 0.00217686 20.1511 2.52762 24.5472 
9751 1 4 H 1.008 0.03 1.21811 2.45094 11.8432 50.6384 2.45094 -37.5781 1 0 -1 0.0221688 0.00453488 0.00780218 6.22366 14.2483 -13.5688 
6408 1 4 H 1.008 0.03 2.29288 0.764147 10.1879 -145.968 50.2268 -39.2333 -3 1 -1 -0.0308217 0.00828588 -0.00174635 2.47205 -2.47178 -1.27526 
1167 1 4 H 1.008 0.03 5.68003 6.43385 11.358 55.1003 -43.0288 159.622 1 -1 3 -0.00720862 -0.0129561 0.00449978 1.97091 -6.54499 -9.46135 