ITEM: TIMESTEP
0
ITEM: NUMBER OF ATOMS
15372
ITEM: BOX BOUNDS pp pp pp
3.1837868380704393e-01 4.9738621316192024e+01
3.1765217768984755e-01 4.9780347822312713e+01
3.0338504412521772e-01 4.9724614955871722e+01
ITEM: ATOMS id mol type element mass q x y z xu yu zu ix iy iz vx vy vz fx fy fz 
1519 1 4 H 1.008 0.03 5.08768 5.34898 3.20168 54.5079 -44.1137 3.20168 1 -1 0 0.000272123 0.000732207 0.0249694 12.4718 -7.40152 11.6446 
3059 1 3 C 11.61 2.4422 1.37255 5.41784 1.70223 50.7928 5.41784 51.1235 1 0 1 0.00123836 0.00396359 0.00626422 24.8922 13.3971 -19.8449 
12093 1 13 D 0.4 -2.3022 1.37741 5.42394 1.69833 50.7977 5.42394 51.1196 1 0 1 -0.0014213 0.00235116 0.00105585 0.367214 -0.49163 2.42015 
3066 1 4 H 1.008 0.03 1.57131 4.34076 1.73384 50.9915 4.34076 51.1551 1 0 1 0.00872746 -0.0254904 0.017124 -5.38077 2.08012 2.77815 
11513 1 11 D 0.4 -1.8447 6.27686 4.13517 1.97833 55.6971 -45.3275 1.97833 1 -1 0 0.000702467 -0.000140575 -0.00111725 5.87473 -1.15351 -3.27774 
6985 1 4 H 1.008 0.03 1.89767 2.3319 6.18235 51.3179 51.7946 -43.2389 1 1 -1 -0.00667939 -0.0137525 -0.0227286 22.6377 -3.07033 -8.59531 
12515 1 11 D 0.4 -1.8447 7.06238 6.34042 5.63201 56.4826 6.34042 5.63201 1 0 0 0.000851656 -0.000342432 0.000999357 -0.190131 -3.6476 -1.72093 
4181 1 1 O 15.6 1.4447 7.06648 6.34049 5.63305 56.4867 6.34049 5.63305 1 0 0 0.00617178 -0.00561801 -0.00589009 45.4842 -26.0606 -3.78934 
13564 1 13 D 0.4 -2.3022 0.730622 3.6265 7.46346 50.1509 53.0892 -41.9578 1 1 -1 0.000900844 -0.00126217 0.000111405 0.534592 -4.10151 4.33126 
5580 1 4 H 1.008 0.03 4.47019 2.20651 5.21372 4.47019 51.6692 5.21372 0 1 0 -0.00178589 -0.0031728 -0.014012 -3.32119 1.8137 1.4476 
1508 1 3 C 11.61 2.4422 5.62891 4.41075 0.737424 55.0492 -45.0519 0.737424 1 -1 0 0.00741351 -0.00186291 -0.00611017 -0.259667 -0.938659 4.11596 
6980 1 3 C 11.61 2.4422 0.73993 3.62411 7.47131 50.1602 53.0868 -41.9499 1 1 -1 -0.00530685 0.00362632 -0.00771012 43.204 -16.0606 16.4166 
6987 1 4 H 1.008 0.03 0.553632 4.53114 6.92353 49.9739 53.9938 -42.4977 1 1 -1 -0.00183325 0.0139195 0.00402475 4.5909 7.29121 -9.91845 
11512 1 13 D 0.4 -2.3022 5.64627 4.41122 0.738968 55.0665 -45.0515 0.738968 1 -1 0 0.00143739 0.00185459 0.000715589 -4.9475 -0.763843 3.58936 
5583 1 4 H 1.008 0.03 4.02534 1.55535 2.46339 4.02534 51.018 2.46339 0 1 0 -0.0159944 -0.0174332 0.0217274 -42.6144 44.7117 -22.7799 
4185 1 4 H 1.008 0.03 8.4733 4.23474 5.30882 57.8935 4.23474 5.30882 1 0 0 -0.0079198 0.00899571 -0.027065 -6.55826 -6.77193 3.56313 
6988 1 4 H 1.008 0.03 1.71796 3.7413 8.09237 51.1382 53.204 -41.3289 1 1 -1 0.00660704 0.00591009 -0.00942123 -42.5974 -2.48598 -24.6197 
1517 1 4 H 1.008 0.03 6.18246 3.95942 4.01693 55.6027 -45.5033 4.01693 1 -1 0 0.00776755 -0.00442767 -0.0174381 -25.9273 25.9754 -18.998 
13033 1 11 D 0.4 -1.8447 3.58939 0.410221 6.79599 3.58939 49.8729 6.79599 0 1 0 0.00105208 -0.00173045 -0.000531861 -8.12447 -1.33753 6.39879 
6983 1 4 H 1.008 0.03 1.0695 1.31504 4.13006 50.4897 50.7777 -45.2912 1 1 -1 0.000133246 -0.00241058 0.00337874 0.015098 -4.95611 0.631464 
12514 1 13 D 0.4 -2.3022 8.51114 6.31761 5.7148 57.9314 6.31761 5.7148 1 0 0 -0.000209667 -0.00209197 -0.000824776 5.84012 0.168186 2.63728 
4180 1 3 C 11.61 2.4422 8.5157 6.32179 5.7125 57.9359 6.32179 5.7125 1 0 0 -0.00513682 0.00220157 0.0056584 -1.09848 -8.25704 10.9433 
1516 1 4 H 1.008 0.03 5.28304 5.40834 0.613331 54.7033 -44.0544 0.613331 1 -1 0 -0.0176239 0.0263965 0.0264765 1.89777 21.3049 6.17683 
1515 1 4 H 1.008 0.03 4.69079 3.90955 0.868668 54.111 -45.5531 0.868668 1 -1 0 -0.00747634 -0.018573 0.000330269 -8.30984 -16.0671 -15.6574 
1509 1 1 O 15.6 1.4447 6.27397 4.13757 1.97358 55.6942 -45.3251 1.97358 1 -1 0 0.00395488 -0.00502333 -0.00127408 2.87763 0.0870481 10.6438 
5569 1 1 O 15.6 1.4447 3.58902 0.407778 6.79777 3.58902 49.8705 6.79777 0 1 0 0.00597924 -0.00340951 0.00398731 51.0361 -1.60796 -22.1371 
13036 1 13 D 0.4 -2.3022 4.98338 1.2576 5.117 4.98338 50.7203 5.117 0 1 0 -0.000197655 0.00154941 0.000794 2.08046 -2.912 1.02161 
1510 1 2 C 11.61 2.6898 5.49308 4.31915 3.17597 54.9133 -45.1435 3.17597 1 -1 0 0.00261078 0.00536899 0.00295165 18.3633 -18.1481 -5.42456 
11514 1 12 D 0.4 -2.5798 5.49761 4.31143 3.17381 54.9179 -45.1513 3.17381 1 -1 0 0.00140115 0.00236865 -0.00240851 -1.97804 0.645967 1.52473 
5582 1 4 H 1.008 0.03 5.71203 1.29931 2.7219 5.71203 50.762 2.7219 0 1 0 -0.0215229 -0.0209863 -0.0108068 0.717499 4.05014 -5.62929 
13038 1 12 D 0.4 -2.5798 4.70518 0.881496 2.73713 4.70518 50.3442 2.73713 0 1 0 -0.00153606 0.00127294 -0.00224661 3.2404 7.81236 12.5235 
1518 1 4 H 1.008 0.03 4.61678 3.6557 3.20794 54.037 -45.807 3.20794 1 -1 0 -0.014695 -0.0233554 0.0143423 6.12989 4.62253 -3.14312 
5574 1 2 C 11.61 2.6898 4.70549 0.887754 2.74382 4.70549 50.3504 2.74382 0 1 0 -0.00641728 -0.00300529 -0.00669786 39.8022 -82.036 7.76957 
3064 1 4 H 1.008 0.03 2.12348 4.91582 4.26645 51.5437 4.91582 53.6877 1 0 1 -0.00240576 -0.0133675 -0.0032086 -8.21658 -4.13067 -8.78426 
5572 1 3 C 11.61 2.4422 4.99003 1.25822 5.11735 4.99003 50.7209 5.11735 0 1 0 0.00666602 0.00558725 -0.00242111 3.06098 -24.7212 -30.3331 
5579 1 4 H 1.008 0.03 6.04319 1.4906 4.91821 6.04319 50.9533 4.91821 0 1 0 -0.0229337 0.0117031 -0.00506159 -4.45805 -0.660469 -4.01451 
12092 1 12 D 0.4 -2.5798 2.13753 5.94113 3.88278 51.5578 5.94113 53.304 1 0 1 -0.000483287 -0.00185695 -0.000502329 2.77114 0.970824 1.71727 
3261 1 4 H 1.008 0.03 7.38687 7.18245 0.65758 -42.0334 7.18245 50.0788 -1 0 1 0.0175981 -0.010952 -0.00821287 5.1522 -5.8311 -16.6977 
41 1 4 H 1.008 0.03 1.10932 1.76857 0.721537 1.10932 1.76857 148.985 0 0 3 -0.0121446 0.015811 -0.0254717 -9.29471 -10.1318 -3.33699 
6979 1 3 C 11.61 2.4422 0.915403 2.36791 6.56726 50.3356 51.8306 -42.854 1 1 -1 0.00750405 0.00227302 -0.00732818 -25.8966 19.7141 27.1377 
5573 1 1 O 15.6 1.4447 4.40322 0.412017 4.05293 4.40322 49.8747 4.05293 0 1 0 6.26625e-06 -0.00682264 0.00392427 20.9851 28.2191 20.1825 
6986 1 4 H 1.008 0.03 0.689807 1.5085 7.18209 50.11 50.9712 -42.2391 1 1 -1 0.0232929 0.0243772 0.0226475 10.2043 -9.49864 4.14571 
13563 1 13 D 0.4 -2.3022 0.90557 2.37411 6.56945 50.3258 51.8368 -42.8518 1 1 -1 0.00222559 0.00238429 -0.00222656 -1.29773 0.175918 -3.24935 
13037 1 11 D 0.4 -1.8447 4.40264 0.412776 4.04943 4.40264 49.8755 4.04943 0 1 0 0.000319499 0.000905371 -0.000102205 0.769607 -3.86067 0.832478 
3065 1 4 H 1.008 0.03 0.357163 5.65573 1.93048 49.7774 5.65573 51.3517 1 0 1 0.0256301 0.00345737 0.0204258 -13.2621 -2.15674 16.9283 
3063 1 4 H 1.008 0.03 3.05346 6.34678 4.38286 52.4737 6.34678 53.8041 1 0 1 -0.017269 0.0270199 -0.0121897 -19.6901 -2.99776 -8.41831 
3072 1 4 H 1.008 0.03 1.27609 6.53777 4.23742 50.6963 6.53777 53.6586 1 0 1 0.0103715 0.0131047 0.0246494 6.13814 -10.8132 -1.24855 
3263 1 4 H 1.008 0.03 7.16531 6.39222 2.18575 -42.2549 6.39222 51.607 -1 0 1 0.010911 -0.0266199 0.00711201 5.30683 -1.36318 2.32783 
3058 1 2 C 11.61 2.6898 2.13669 5.93684 3.88549 51.5569 5.93684 53.3067 1 0 1 -0.00295215 -0.00168234 -0.00613793 22.0741 24.6359 4.29492 
12091 1 11 D 0.4 -1.8447 2.33724 6.13953 2.47492 51.7575 6.13953 51.8962 1 0 1 -0.00109498 0.000729067 0.00033072 -3.16723 -0.334496 2.63478 
3057 1 1 O 15.6 1.4447 2.33308 6.13476 2.47414 51.7533 6.13476 51.8954 1 0 1 -0.00591772 7.1441e-05 0.000139918 -10.4776 -14.6161 13.3205 
5578 1 4 H 1.008 0.03 5.60779 0.942058 7.23539 5.60779 50.4048 7.23539 0 1 0 -0.0174429 -0.0213267 0.0134152 -16.2108 -10.1947 -26.0823 
5571 1 3 C 11.61 2.4422 5.00093 0.450961 6.40859 5.00093 49.9137 6.40859 0 1 0 0.0032003 -0.00569707 0.00358942 -37.5644 56.3595 42.6997 
13035 1 13 D 0.4 -2.3022 5.00192 0.453126 6.40392 5.00192 49.9158 6.40392 0 1 0 0.000467833 0.0011787 -0.000284941 -9.22587 -5.93122 3.82063 
3254 1 2 C 11.61 2.6898 7.35469 7.34427 1.70505 -42.0656 7.34427 51.1263 -1 0 1 0.00259146 0.00011401 -0.0035126 9.53164 -19.2084 17.4548 
12168 1 12 D 0.4 -2.5798 7.3527 7.35608 1.7087 -42.0675 7.35608 51.1299 -1 0 1 0.00119616 0.00136096 0.000330735 1.98742 -0.903778 -1.48167 
5512 1 4 H 1.008 0.03 8.67564 2.84748 2.62884 8.67564 52.3102 101.471 0 1 2 0.0241963 -0.0245572 -0.018264 10.1905 6.19005 5.20694 
3181 1 4 H 1.008 0.03 8.66177 1.08652 4.3251 58.082 100.012 -94.5174 1 2 -2 -0.0166784 -0.0211091 -0.0147709 -5.58718 28.7216 -2.51774 
4177 1 1 O 15.6 1.4447 8.78931 4.42323 7.32855 58.2096 4.42323 7.32855 1 0 0 7.17264e-05 0.00477899 -0.00256987 14.7795 0.158684 7.98147 
12511 1 11 D 0.4 -1.8447 8.78707 4.4245 7.33751 58.2073 4.4245 7.33751 1 0 0 -0.0015035 -0.00156218 -0.00215836 4.37577 -7.00392 -8.88952 
4179 1 3 C 11.61 2.4422 9.03753 4.85421 5.99338 58.4578 4.85421 5.99338 1 0 0 -0.00575781 -0.00455667 0.00292156 10.7602 4.87727 -28.7106 
12513 1 13 D 0.4 -2.3022 9.03299 4.85252 6.00041 58.4532 4.85252 6.00041 1 0 0 -0.000976668 0.00189281 -0.00113651 -1.04183 5.48323 -5.43549 
4187 1 4 H 1.008 0.03 9.05737 6.79556 4.85697 58.4776 6.79556 4.85697 1 0 0 0.0185549 0.0250084 0.00704455 -15.3189 -12.0701 8.34479 
12166 1 13 D 0.4 -2.3022 9.81905 7.28676 2.03844 -39.6012 7.28676 51.4597 -1 0 1 -0.000652726 -2.5904e-05 -0.00163852 -2.02213 0.10728 -2.32294 
3174 1 2 C 11.61 2.6898 9.386 0.490249 4.81631 58.8062 99.4156 -94.0261 1 2 -2 0.00557873 0.00450205 -0.000417871 33.1787 -32.1835 20.4845 
141 1 4 H 1.008 0.03 14.7177 6.35397 1.57275 113.558 105.279 50.994 2 2 1 0.010261 -0.000255711 0.00887129 -3.01926 -8.68617 22.1047 
13010 1 12 D 0.4 -2.5798 9.53691 3.54188 2.74601 9.53691 53.0046 101.588 0 1 2 0.00170782 -0.00244393 0.00108413 -0.410755 -1.97127 -3.35873 
5506 1 2 C 11.61 2.6898 9.53118 3.54208 2.73846 9.53118 53.0048 101.581 0 1 2 0.00132802 -0.00662547 0.00556368 -23.9999 5.05308 -48.7393 
5505 1 1 O 15.6 1.4447 10.5821 2.96632 3.38295 10.5821 52.429 102.225 0 1 2 0.00615397 -0.00180467 -0.00398382 29.4939 -26.3963 32.0813 
13009 1 11 D 0.4 -1.8447 10.5762 2.9686 3.3867 10.5762 52.4313 102.229 0 1 2 -0.000316366 -0.00139406 -0.00131066 1.51192 -4.81348 -0.564624 
5511 1 4 H 1.008 0.03 9.16502 4.39163 3.21401 9.16502 53.8543 102.056 0 1 2 -0.00695334 -0.0102824 0.0256615 -8.14261 23.8316 18.8826 
5514 1 4 H 1.008 0.03 12.1021 3.47464 2.09683 12.1021 52.9373 100.939 0 1 2 -0.0159545 0.00369221 0.0103084 5.4699 -0.554555 6.17421 
5513 1 4 H 1.008 0.03 12.0814 4.36093 3.63269 12.0814 53.8236 102.475 0 1 2 -0.0196133 -0.017481 -0.0227761 1.09087 15.0501 1.57971 
13011 1 13 D 0.4 -2.3022 11.9299 3.39208 3.1788 11.9299 52.8548 102.021 0 1 2 -9.60026e-06 0.000393371 -0.00203087 -0.156259 3.19853 0.856396 
5507 1 3 C 11.61 2.4422 11.9353 3.40177 3.18028 11.9353 52.8645 102.023 0 1 2 -0.00359434 0.002717 -0.00475234 -20.8808 -5.63937 -25.7583 
5516 1 4 H 1.008 0.03 13.9999 2.60188 3.73367 13.9999 52.0646 102.576 0 1 2 -0.0253195 -0.0263104 0.00439754 -56.0208 -5.40591 1.06714 
5515 1 4 H 1.008 0.03 12.6458 2.56835 4.90111 12.6458 52.031 103.744 0 1 2 0.0182976 -0.017796 -0.00372124 -0.519763 -12.5404 10.0501 
5508 1 3 C 11.61 2.4422 12.8519 2.3935 3.855 12.8519 51.8562 102.697 0 1 2 0.000479677 -0.000919326 0.00767732 48.8782 -7.23862 -17.8223 
13012 1 13 D 0.4 -2.3022 12.8454 2.39065 3.85258 12.8454 51.8533 102.695 0 1 2 -0.000827844 0.000497869 -6.90739e-05 2.01646 -1.55308 0.353542 
10996 1 13 D 0.4 -2.3022 14.9793 6.22151 4.94216 113.82 105.147 54.3634 2 2 1 -0.00199916 -0.00143087 -0.000468463 -0.377545 -0.379067 -3.24353 
132 1 3 C 11.61 2.4422 14.9911 6.22428 4.94938 113.832 105.15 54.3706 2 2 1 -0.00336955 -0.00477057 0.00185722 -3.91239 -1.89785 -11.7481 
10997 1 11 D 0.4 -1.8447 14.2737 6.34624 3.68384 113.114 105.272 53.1051 2 2 1 -0.00213943 -4.92928e-06 -0.000977334 0.623458 -0.445814 -1.48573 
133 1 1 O 15.6 1.4447 14.2801 6.35194 3.69017 113.121 105.277 53.1114 2 2 1 -0.00328801 0.00639735 -0.00365932 4.09789 -17.2899 11.7348 
139 1 4 H 1.008 0.03 15.5765 5.27761 5.0666 114.417 104.203 54.4878 2 2 1 -0.00767547 -0.00446376 0.026428 -5.38975 18.3522 -7.94597 
4186 1 4 H 1.008 0.03 10.087 4.6501 5.59536 59.5073 4.6501 5.59536 1 0 0 -0.00181722 0.0122484 -0.00176406 -25.4434 15.103 22.1272 
4188 1 4 H 1.008 0.03 8.76748 6.95538 6.56569 58.1877 6.95538 6.56569 1 0 0 0.0212151 0.0122539 -0.0172479 4.11323 -2.18767 -0.0786003 
131 1 3 C 11.61 2.4422 14.0215 6.30819 6.1116 112.862 105.234 55.5328 2 2 1 -0.00739193 0.00411164 0.00279717 -15.6463 -6.24684 -5.31051 
10995 1 13 D 0.4 -2.3022 14.0118 6.31043 6.0932 112.852 105.236 55.5144 2 2 1 0.000230588 -0.00173925 0.000236568 -1.01648 -0.0750761 2.53423 
129 1 1 O 15.6 1.4447 13.0045 7.22517 5.84513 111.845 106.151 55.2664 2 2 1 -0.00406644 0.000255745 -0.00266629 -6.93378 23.9211 -25.6785 
10993 1 11 D 0.4 -1.8447 12.994 7.23016 5.84253 111.834 106.156 55.2638 2 2 1 0.000920038 -0.000792897 -0.0024661 4.27205 0.411059 0.0667155 
137 1 4 H 1.008 0.03 13.521 5.35866 6.29322 112.361 104.284 55.7144 2 2 1 0.0230352 -0.0251241 -0.00568115 8.51174 -6.80343 -2.61974 
130 1 2 C 11.61 2.6898 11.9711 7.18089 6.77221 110.812 106.106 56.1934 2 2 1 0.00119511 -0.00416933 -0.00394119 -40.3067 11.4498 17.442 
10994 1 12 D 0.4 -2.5798 11.9635 7.18828 6.76626 110.804 106.114 56.1875 2 2 1 -0.000861779 6.27852e-05 0.00222232 -1.42814 -3.73874 0.245731 
136 1 4 H 1.008 0.03 11.5081 6.19271 6.74031 110.349 105.118 56.1615 2 2 1 -0.0180506 0.00995114 -0.0149007 1.71141 0.475233 5.07468 
5750 1 2 C 11.61 2.6898 15.9412 3.05873 7.87174 65.3615 52.5214 106.714 1 1 2 -0.00541883 0.00643203 -0.00415712 4.34871 16.3431 -27.6653 
5759 1 4 H 1.008 0.03 15.1611 3.56112 7.31038 64.5813 53.0238 106.153 1 1 2 0.0094504 -0.0176403 0.0100942 -3.81159 0.70891 -0.586368 
13104 1 12 D 0.4 -2.5798 15.9366 3.04617 7.87222 65.3569 52.5089 106.715 1 1 2 0.00052657 0.00216682 0.000270378 -3.2328 0.695105 -1.30581 
4184 1 4 H 1.008 0.03 8.80113 2.37718 7.10609 58.2214 2.37718 7.10609 1 0 0 0.00532711 0.0149998 0.00118879 -16.5179 -12.851 -9.74771 
2717 1 4 H 1.008 0.03 16.3942 0.722244 1.62215 -33.0261 50.1849 51.0434 -1 1 1 -0.0170877 -0.0155829 0.00345601 15.1576 22.5529 9.473 
3259 1 4 H 1.008 0.03 9.85786 6.37307 2.62097 -39.5624 6.37307 52.0422 -1 0 1 0.0143682 0.0219648 0.0260717 -0.920529 -5.89646 -0.86704 
134 1 2 C 11.61 2.6898 15.173 6.32003 2.58865 114.013 105.245 52.0099 2 2 1 -0.00205222 -0.0027634 0.00165741 45.1854 53.3837 -21.8097 
5520 1 4 H 1.008 0.03 9.77685 3.88563 1.72696 9.77685 53.3483 100.569 0 1 2 0.0140386 0.0120869 -0.00463822 3.02981 -5.60791 2.75892 
10998 1 12 D 0.4 -2.5798 15.1662 6.30681 2.58501 114.007 105.232 52.0062 2 2 1 -0.00104314 -0.000264305 0.000795975 -0.746827 3.2701 -1.11113 
5509 1 1 O 15.6 1.4447 12.5462 1.05188 3.35701 12.5462 50.5146 102.199 0 1 2 -0.00273481 0.00283721 0.00581865 12.0546 6.39235 29.126 
13013 1 11 D 0.4 -1.8447 12.5475 1.05112 3.35339 12.5475 50.5138 102.196 0 1 2 0.000244367 0.00188716 -0.0019865 -0.483591 -0.729308 1.93093 
2719 1 4 H 1.008 0.03 16.7352 1.87028 2.93116 -32.685 51.333 52.3524 -1 1 1 0.0178542 0.0117939 0.00390349 -2.11738 9.46836 21.1529 
3260 1 4 H 1.008 0.03 10.0085 7.07963 1.0193 -39.4118 7.07963 50.4405 -1 0 1 -0.0197208 0.0181115 -0.0121175 3.31729 -8.36322 -23.3147 
3252 1 3 C 11.61 2.4422 9.81903 7.28007 2.03726 -39.6012 7.28007 51.4585 -1 0 1 -0.00766693 -0.00158282 0.00535037 -54.7798 26.9153 28.9927 
142 1 4 H 1.008 0.03 15.8776 5.47535 2.66188 114.718 104.401 52.0831 2 2 1 -0.0131118 0.0224861 0.00519987 -6.86169 3.91123 -3.76154 
5749 1 1 O 15.6 1.4447 15.4906 1.79367 8.2501 64.9109 51.2564 107.093 1 1 2 -0.00206915 0.00166149 0.00544518 4.64903 16.66 38.9091 
12512 1 12 D 0.4 -2.5798 9.37826 3.12725 7.56859 58.7985 3.12725 7.56859 1 0 0 0.00237168 -0.000376092 0.000230436 -5.46306 7.04466 2.55982 
4178 1 2 C 11.61 2.6898 9.37721 3.13283 7.5656 58.7975 3.13283 7.5656 1 0 0 -0.00513923 -0.00639892 -0.00430699 19.8162 4.21999 -4.44307 
4183 1 4 H 1.008 0.03 10.4092 2.96668 7.19709 59.8295 2.96668 7.19709 1 0 0 -0.00867972 -0.0240286 -0.0241908 -9.57419 11.2004 3.20387 
5273 1 4 H 1.008 0.03 12.7463 3.62682 8.04512 12.7463 102.552 57.4664 0 2 1 -0.00454196 0.0239242 -0.00193582 4.1081 6.14304 6.69669 
13103 1 11 D 0.4 -1.8447 15.4879 1.79523 8.25057 64.9081 51.2579 107.093 1 1 2 0.000961896 -0.00100746 -0.000790591 2.40926 -7.31933 8.78469 
3182 1 4 H 1.008 0.03 10.3374 0.403156 4.21379 59.7577 99.3285 -94.6287 1 2 -2 -0.0178856 0.0180512 0.00522787 -28.151 4.00539 11.5553 
12138 1 12 D 0.4 -2.5798 9.3731 0.48814 4.82712 58.7933 99.4135 -94.0153 1 2 -2 0.00218276 0.00111961 -0.00218298 3.60457 -3.11573 1.86999 
143 1 4 H 1.008 0.03 15.8178 7.30453 2.54043 114.658 106.23 51.9617 2 2 1 0.0248826 0.0166387 0.00779204 -31.0347 -51.3554 12.1111 
140 1 4 H 1.008 0.03 15.6273 7.09853 4.99284 114.468 106.024 54.4141 2 2 1 0.00443397 0.019745 0.0129012 10.441 -0.555808 3.50356 
5755 1 4 H 1.008 0.03 14.5402 1.3548 6.52381 63.9605 50.8175 105.366 1 1 2 0.0101984 -0.0231642 -0.0246754 -9.58564 3.65881 -0.899616 
6720 1 4 H 1.008 0.03 9.55391 1.16015 1.3826 -39.8663 100.086 100.225 -1 2 2 -0.00377804 0.0157042 0.0228111 -1.53755 -16.2723 -0.789572 
138 1 4 H 1.008 0.03 14.4892 6.65404 7.00975 113.33 105.579 56.431 2 2 1 -0.00662776 -0.0133875 -0.0139478 13.9622 -0.431124 8.35312 
5748 1 3 C 11.61 2.4422 15.1872 0.91312 7.26592 64.6075 50.3758 106.108 1 1 2 0.00193312 0.00455684 -0.00599464 -24.7046 -23.0621 -7.07723 
13102 1 13 D 0.4 -2.3022 15.1814 0.913404 7.27452 64.6017 50.3761 106.117 1 1 2 0.00246895 -0.0010375 -0.000128004 -1.83267 -2.39639 -11.4332 
5756 1 4 H 1.008 0.03 16.039 0.696071 6.71541 65.4593 50.1588 105.558 1 1 2 -0.00797405 0.0186946 -0.0233741 31.7694 -14.5962 -13.3301 
3183 1 4 H 1.008 0.03 9.68782 0.800469 5.89376 59.1081 99.7259 -92.9487 1 2 -2 0.00773389 0.0260916 -0.00207514 -17.2246 -7.74479 -47.7176 
1273 1 4 H 1.008 0.03 24.6551 2.00181 2.75742 -24.7651 150.39 2.75742 -1 3 0 -0.0229678 -0.0190306 0.00740473 11.9939 -25.4568 16.0425 
11677 1 11 D 0.4 -1.8447 24.9925 6.88538 3.85679 24.9925 6.88538 -94.9857 0 0 -2 -1.75333e-05 0.000868868 0.000917202 -0.835936 -6.36589 4.82894 
1959 1 4 H 1.008 0.03 24.4757 6.47443 1.86719 24.4757 6.47443 -96.9753 0 0 -2 0.0128411 -0.00417711 0.0195699 -3.10225 6.09884 11.3253 
1953 1 1 O 15.6 1.4447 24.9891 6.88443 3.85993 24.9891 6.88443 -94.9825 0 0 -2 0.00336334 0.00182993 -0.0020876 -7.18824 8.43502 -4.97241 
1271 1 4 H 1.008 0.03 24.5874 3.26372 5.12532 -24.8329 151.652 5.12532 -1 3 0 0.00404819 -0.01328 0.00455379 14.4229 7.43656 23.314 
1280 1 4 H 1.008 0.03 23.3656 3.30421 4.05261 -26.0546 151.692 4.05261 -1 3 0 0.0158122 0.00485344 0.0119581 -3.09613 -9.7741 2.84395 
2139 1 4 H 1.008 0.03 20.6044 2.35675 6.00341 70.0246 101.282 55.4246 1 2 1 -0.0189589 -0.0229061 -0.0231618 -23.5378 -18.4699 -20.0956 
2138 1 4 H 1.008 0.03 18.7534 3.78432 4.89696 68.1737 102.71 54.3182 1 2 1 0.00444204 -0.00728844 -0.015445 9.9961 -14.4283 -2.09188 
2135 1 4 H 1.008 0.03 19.511 4.87036 2.26151 68.9313 103.796 51.6827 1 2 1 0.0242361 -0.00732983 -0.00632981 31.9076 -3.64427 39.4946 
11744 1 12 D 0.4 -2.5798 20.2111 5.01568 3.18427 69.6313 103.941 52.6055 1 2 1 -0.000164181 -0.00081363 0.000938605 -2.58051 -1.65604 -8.23566 
2130 1 2 C 11.61 2.6898 20.2019 5.02196 3.18581 69.6221 103.947 52.607 1 2 1 -0.00287468 0.00665558 -0.000530175 -35.4697 -22.6451 -24.0551 
2140 1 4 H 1.008 0.03 20.1843 1.07345 4.77965 69.6045 99.9988 54.2009 1 2 1 0.00618376 -0.00682223 0.0140636 -0.945876 11.0242 7.94276 
2131 1 3 C 11.61 2.4422 19.4131 3.05191 4.37477 68.8333 101.977 53.796 1 2 1 -0.00502758 0.00133458 0.00138032 9.48808 48.7977 -23.7392 
11745 1 13 D 0.4 -2.3022 19.4113 3.04747 4.37731 68.8315 101.973 53.7985 1 2 1 0.00234735 0.00205501 -0.000813922 1.86972 12.571 0.0322708 
2132 1 3 C 11.61 2.4422 19.7811 1.9293 5.33666 69.2013 100.855 54.7579 1 2 1 -0.000844657 0.00715056 -0.00318999 8.06141 -2.45095 42.6356 
11746 1 13 D 0.4 -2.3022 19.7732 1.93578 5.34112 69.1934 100.861 54.7624 1 2 1 -8.46442e-05 -0.00209785 -0.000497448 7.19907 -2.07317 1.45615 
11420 1 12 D 0.4 -2.5798 23.6906 2.72786 4.92357 -25.7297 151.116 4.92357 -1 3 0 0.000939762 -0.00133983 -0.00174522 0.0267322 -9.06498 -1.83202 
1266 1 2 C 11.61 2.6898 23.6987 2.72765 4.92437 -25.7215 151.116 4.92437 -1 3 0 -0.0076001 0.00347608 0.00688334 9.80143 13.6683 -58.9231 
7753 1 4 H 1.008 0.03 21.2726 2.38506 1.55669 21.2726 51.8478 100.399 0 1 2 -0.0157605 0.0117624 0.0154826 -20.9327 -3.63959 0.903418 
2709 1 1 O 15.6 1.4447 18.309 0.5711 2.28461 -31.1113 50.0338 51.7058 -1 1 1 -0.00191584 0.00143399 -0.00125305 4.7223 3.69187 12.1612 
1272 1 4 H 1.008 0.03 22.8902 2.82007 5.55307 -26.53 151.208 5.55307 -1 3 0 0.00794613 0.0154639 -0.00422103 -21.7303 6.60389 38.4863 
2137 1 4 H 1.008 0.03 18.8119 2.77099 3.48796 68.2321 101.696 52.9092 1 2 1 0.00356142 -0.00884374 -0.0267679 12.483 -4.71533 14.9783 
2133 1 1 O 15.6 1.4447 18.6935 1.5026 6.23624 68.1138 100.428 55.6575 1 2 1 -0.000450722 0.00158211 -0.00590658 22.3513 -39.3847 -17.4951 
11747 1 11 D 0.4 -1.8447 18.6855 1.49432 6.23713 68.1057 100.42 55.6584 1 2 1 0.00133084 0.00020192 0.00152659 5.5724 11.8649 0.991755 
2129 1 1 O 15.6 1.4447 20.6059 3.85258 3.92232 70.0261 102.778 53.3435 1 2 1 -0.0042234 -0.00587086 0.00241015 -46.7532 -21.1876 12.9266 
2144 1 4 H 1.008 0.03 19.6469 5.66724 3.82976 69.0672 104.593 53.251 1 2 1 0.0163371 -0.0086271 -0.0177504 -5.44411 10.1937 10.9777 
11743 1 11 D 0.4 -1.8447 20.6106 3.85601 3.92399 70.0309 102.781 53.3452 1 2 1 -0.000374235 0.00229713 -0.000220364 -0.0189528 -5.41247 -8.7867 
2136 1 4 H 1.008 0.03 21.047 5.56477 2.85634 70.4673 104.49 52.2776 1 2 1 -0.0127333 -0.0118307 0.0222543 18.5773 9.72704 -6.36618 
7760 1 4 H 1.008 0.03 23.3887 3.53863 1.86108 23.3887 53.0013 100.704 0 1 2 -0.00275494 0.0267597 0.0053952 -12.0678 -8.62329 -0.0618409 
7746 1 2 C 11.61 2.6898 23.0831 3.45799 0.816543 23.0831 52.9207 99.659 0 1 2 -0.000104167 -0.00626453 0.00217328 56.4613 10.181 -1.25236 
13850 1 12 D 0.4 -2.5798 23.0844 3.46265 0.809226 23.0844 52.9253 99.6517 0 1 2 0.000715482 0.000546733 -0.00148743 3.57178 2.30359 0.451917 
7751 1 4 H 1.008 0.03 22.3037 4.20158 0.645345 22.3037 53.6643 99.4878 0 1 2 -0.0151818 -0.0202314 -0.00865178 5.29787 2.5326 -6.82511 
11964 1 12 D 0.4 -2.5798 17.1744 1.39695 2.09923 -32.2458 50.8596 51.5205 -1 1 1 0.0013194 0.00115041 4.71511e-05 3.9478 -0.406245 -4.38864 
2710 1 2 C 11.61 2.6898 17.1718 1.39659 2.09133 -32.2485 50.8593 51.5126 -1 1 1 -0.00296094 -0.0056547 -0.00307228 -7.96986 -39.9641 -42.2558 
1960 1 4 H 1.008 0.03 23.5617 5.59955 3.09625 23.5617 5.59955 -95.7462 0 0 -2 -0.0124079 -0.0176499 0.0126098 -10.2501 2.28076 3.2298 
13851 1 13 D 0.4 -2.3022 21.8346 1.58583 1.06733 21.8346 51.0485 99.9098 0 1 2 -0.000780408 -0.000133959 0.00105818 4.23928 -0.463178 4.39468 
7747 1 3 C 11.61 2.4422 21.8276 1.58524 1.08386 21.8276 51.0479 99.9263 0 1 2 0.00515471 0.00181088 0.00418859 -4.65111 6.77072 84.7856 
2718 1 4 H 1.008 0.03 17.5459 2.1254 1.35339 -31.8744 51.5881 50.7746 -1 1 1 -0.0113892 0.0270727 0.00742172 -13.5956 0.529682 6.19096 
11419 1 11 D 0.4 -1.8447 23.9286 1.38144 4.58745 -25.4916 149.77 4.58745 -1 3 0 -0.000281171 0.000397265 -0.00100228 1.84946 -5.26566 -5.33668 
7752 1 4 H 1.008 0.03 24.101 3.63028 0.360218 24.101 53.093 99.2027 0 1 2 -0.0079623 -0.000600048 0.0219274 -34.6915 12.5105 1.01776 
1267 1 3 C 11.61 2.4422 24.8529 1.18614 3.51866 -24.5674 149.574 3.51866 -1 3 0 0.00558733 0.00527004 0.00117858 6.83693 41.4006 -16.2453 
5757 1 4 H 1.008 0.03 16.7975 3.08616 7.18677 66.2177 52.5489 106.029 1 1 2 0.0158709 0.0159622 0.0217448 0.926334 -7.07088 8.0583 
786 1 2 C 11.61 2.6898 19.5314 4.79897 8.40847 19.5314 -44.6637 8.40847 0 -1 0 0.00720918 -0.001895 -0.0024128 18.2335 39.3959 -9.85922 
11240 1 12 D 0.4 -2.5798 19.5334 4.79457 8.41173 19.5334 -44.6681 8.41173 0 -1 0 0.00217261 -0.00105256 -0.000581581 -1.05103 0.0403287 -4.78478 
800 1 4 H 1.008 0.03 19.7097 3.76525 8.11 19.7097 -45.6974 8.11 0 -1 0 -0.00970773 -0.00913767 0.0203783 -5.56917 -0.301953 -0.983736 
792 1 4 H 1.008 0.03 19.9728 5.51243 7.68565 19.9728 -43.9503 7.68565 0 -1 0 0.0268907 -0.00534213 0.00837835 -5.97665 -19.4626 -1.90845 
1954 1 2 C 11.61 2.6898 24.531 6.00029 2.85345 24.531 6.00029 -95.989 0 0 -2 -0.00144848 0.00147403 -0.00286686 6.9699 -19.8433 -18.5334 
7690 1 4 H 1.008 0.03 24.1336 3.98736 7.59648 73.5538 -94.938 57.0177 1 -2 1 -0.0153962 0.00951124 0.0182805 -3.41581 -2.67322 -11.5205 
11678 1 12 D 0.4 -2.5798 24.5332 5.99437 2.84743 24.5332 5.99437 -95.995 0 0 -2 -0.000556578 0.000339769 -0.000959154 -6.85567 6.04589 -0.886203 
1967 1 4 H 1.008 0.03 20.6961 7.28506 6.24855 20.6961 7.28506 -92.5939 0 0 -2 0.01125 -0.0194443 -0.00721235 -18.8644 -2.61174 -11.3978 
1265 1 1 O 15.6 1.4447 23.9332 1.38377 4.58573 -25.487 149.772 4.58573 -1 3 0 0.00602742 -0.00663868 -0.00469593 1.39258 -9.34527 8.26846 
2142 1 4 H 1.008 0.03 19.7371 0.740444 7.79321 69.1574 99.6658 57.2144 1 2 1 -0.0207379 5.04971e-05 0.00549632 20.4205 4.92115 24.3316 
11963 1 11 D 0.4 -1.8447 18.3136 0.574328 2.28131 -31.1067 50.037 51.7025 -1 1 1 -0.00129654 -0.00217439 0.00154714 -2.83828 -2.27964 0.24339 
10638 2 9 F 18.6 1.274 17.2001 6.95685 0.57604 17.2001 6.95685 0.57604 0 0 0 -0.00169957 -0.00311285 0.00131591 22.0559 7.97316 -13.1583 
15102 2 18 D 0.4 -1.3442 17.2002 6.94568 0.573647 17.2002 6.94568 0.573647 0 0 0 0.00237799 0.00163156 -0.00116197 -2.61747 -0.363606 0.860294 
1963 1 4 H 1.008 0.03 22.1438 7.25578 4.12908 22.1438 7.25578 -94.7134 0 0 -2 -0.017631 0.0148619 0.0153642 -18.7122 -7.63288 -17.703 
1966 1 4 H 1.008 0.03 21.8047 7.27933 7.62643 21.8047 7.27933 -91.216 0 0 -2 -0.0100279 -0.024271 0.0208291 -9.78496 -17.6193 2.34793 
2134 1 2 C 11.61 2.6898 19.067 0.353937 7.09111 68.4872 99.2793 56.5123 1 2 1 -0.00179213 0.00787827 -0.00778837 -7.85724 9.40734 -25.3326 
7754 1 4 H 1.008 0.03 22.268 1.14221 2.02111 22.268 50.6049 100.864 0 1 2 -0.0245022 -0.00545342 -0.0189206 -6.02915 -0.853235 -27.8945 
11421 1 13 D 0.4 -2.3022 24.8489 1.18651 3.51513 -24.5714 149.575 3.51513 -1 3 0 -0.00203725 -0.00221113 -0.0013421 7.57502 2.65343 5.29804 
11748 1 12 D 0.4 -2.5798 19.0682 0.348117 7.09748 68.4885 99.2735 56.5187 1 2 1 -0.00213896 -0.00189164 0.00116081 -11.8019 5.37156 -7.86358 
7748 1 3 C 11.61 2.4422 20.8878 0.728978 0.353235 20.8878 50.1917 99.1957 0 1 2 -0.00203308 -0.000521902 -0.00545401 8.97413 -14.711 -37.9293 
13849 1 11 D 0.4 -1.8447 22.7833 2.18988 0.328117 22.7833 51.6526 99.1706 0 1 2 -0.000449094 -0.0020431 -0.00211452 -0.809313 0.922941 -0.923957 
7745 1 1 O 15.6 1.4447 22.7772 2.18558 0.333366 22.7772 51.6483 99.1758 0 1 2 0.00200601 -0.00556254 0.00318097 18.03 3.19645 -27.4959 
13852 1 13 D 0.4 -2.3022 20.9008 0.729631 0.342421 20.9008 50.1923 99.1849 0 1 2 5.96655e-05 -6.93316e-05 0.00193246 -3.28041 2.42901 -4.15552 
5736 1 4 H 1.008 0.03 0.383691 1.61122 11.7037 0.383691 100.537 110.546 0 2 2 -0.027078 0.0168348 -0.00187901 -8.28474 -0.889306 9.88064 
5729 1 1 O 15.6 1.4447 2.12793 0.802141 12.4139 2.12793 99.7275 111.256 0 2 2 -0.00260201 0.00256185 -0.00603369 21.0317 -13.7458 11.0424 
3654 1 2 C 11.61 2.6898 3.23099 6.64262 9.96646 200.912 6.64262 59.3877 4 0 1 0.00550444 0.00185487 -0.00717339 -80.5971 -15.5085 -4.67408 
12318 1 12 D 0.4 -2.5798 3.2207 6.64039 9.96138 200.902 6.64039 59.3826 4 0 1 -0.000755145 -0.00172463 -0.00173451 -3.11085 1.36144 -0.353887 
3663 1 4 H 1.008 0.03 4.15657 6.66395 9.5221 201.838 6.66395 58.9433 4 0 1 0.0194951 -0.00206097 0.024782 44.7619 -6.00663 -6.35492 
8921 1 4 H 1.008 0.03 6.06684 6.98677 13.3908 55.4871 6.98677 13.3908 1 0 0 0.0186237 -0.0118432 -0.0253454 -0.464785 3.77283 13.0654 
3660 1 4 H 1.008 0.03 3.16898 4.336 12.3944 200.85 4.336 61.8157 4 0 1 0.00996994 -0.0133126 -0.00101811 -19.7202 -31.3619 14.0811 
12317 1 11 D 0.4 -1.8447 2.71724 5.41285 10.5994 200.398 5.41285 60.0206 4 0 1 0.00197448 -0.000754127 -6.91333e-05 0.382184 -1.1512 -0.360326 
3653 1 1 O 15.6 1.4447 2.72622 5.41357 10.6023 200.407 5.41357 60.0235 4 0 1 0.000379567 -0.00247358 -0.00222416 35.6468 14.395 13.8886 
12314 1 12 D 0.4 -2.5798 6.12893 3.04702 9.72439 203.81 3.04702 59.1456 4 0 1 -0.001811 -0.000765364 -0.000613826 0.526652 2.78002 -1.56339 
3655 1 4 H 1.008 0.03 6.51236 3.88574 9.14686 204.193 3.88574 58.5681 4 0 1 -0.0247636 -0.00743611 -0.00372972 5.66756 -5.01491 -20.3491 
3650 1 2 C 11.61 2.6898 6.12786 3.05772 9.72031 203.809 3.05772 59.1415 4 0 1 0.00128974 0.00496815 0.0066307 -41.1375 16.6958 58.1074 
7578 1 4 H 1.008 0.03 7.29401 3.76372 15.6429 7.29401 102.689 65.0641 0 2 1 0.0203406 0.00617249 0.00994369 -20.3423 20.673 -0.461862 
3652 1 3 C 11.61 2.4422 3.58116 5.01255 11.7332 201.262 5.01255 61.1545 4 0 1 0.00404868 0.00516368 0.00255505 25.8682 53.3737 -50.9178 
12316 1 13 D 0.4 -2.3022 3.5799 5.00255 11.7323 201.261 5.00255 61.1536 4 0 1 0.00172462 0.00234886 0.00205995 -3.14322 2.88549 -8.38593 
3659 1 4 H 1.008 0.03 3.7271 5.90601 12.3287 201.408 5.90601 61.7499 4 0 1 -0.00692642 0.00847388 -0.0155594 -1.79629 0.761067 6.50973 
12313 1 11 D 0.4 -1.8447 4.87358 3.52269 10.3244 202.555 3.52269 59.7457 4 0 1 0.00128114 0.00229692 0.00127922 -4.81007 -1.09408 -0.672329 
3649 1 1 O 15.6 1.4447 4.87032 3.52828 10.3249 202.551 3.52828 59.7461 4 0 1 0.00120606 -0.00150623 -0.0038469 25.9818 -22.2557 -17.9371 
3664 1 4 H 1.008 0.03 6.85026 2.86349 10.5277 204.531 2.86349 59.949 4 0 1 -0.0133772 0.00825687 0.0232314 -3.78481 0.324943 -6.63856 
9241 1 4 H 1.008 0.03 2.97356 1.54489 15.5554 2.97356 100.47 -33.8658 0 2 -1 -0.0164128 -0.00161695 0.00656724 10.2419 -3.76482 4.06723 
12315 1 13 D 0.4 -2.3022 4.9957 4.61232 11.1974 202.677 4.61232 60.6187 4 0 1 -0.002056 -0.000190433 -0.00153623 -2.89319 -2.35615 3.97956 
3651 1 3 C 11.61 2.4422 4.99875 4.61945 11.2022 202.68 4.61945 60.6234 4 0 1 -0.00762896 -0.0023236 -0.001997 17.6303 -10.2665 1.14743 
3658 1 4 H 1.008 0.03 5.65052 4.27714 12.0087 203.331 4.27714 61.4299 4 0 1 -0.0226512 -0.0114617 -0.00912262 -6.24447 2.79083 4.84135 
9248 1 4 H 1.008 0.03 5.17393 2.75025 15.3409 5.17393 101.676 -34.0804 0 2 -1 -0.00199179 0.0056525 -0.00194137 -19.775 0.187735 -13.2836 