ITEM: TIMESTEP
4995000
ITEM: NUMBER OF ATOMS
15372
ITEM: BOX BOUNDS pp pp pp
3.1837868380704393e-01 4.9738621316192024e+01
3.1765217768984755e-01 4.9780347822312713e+01
3.0338504412521772e-01 4.9724614955871722e+01
ITEM: ATOMS id mol type element mass q x y z xu yu zu ix iy iz vx vy vz fx fy fz 
6757 1 1 O 15.6 1.4447 4.73167 3.94196 6.27781 4.73167 -45.5207 -43.1434 0 -1 -1 -0.00396096 0.00146515 -0.00559506 -11.4532 46.777 -30.1319 
13481 1 11 D 0.4 -1.8447 4.72682 3.93765 6.27566 4.72682 -45.525 -43.1456 0 -1 -1 -0.00362006 0.00119508 -0.00617463 0.136628 -0.205747 -0.620637 
13477 1 11 D 0.4 -1.8447 7.31564 3.08537 7.21532 7.31564 -46.3773 -42.2059 0 -1 -1 -0.000165876 0.0025875 0.0033477 -0.318986 1.06094 -1.36493 
6753 1 1 O 15.6 1.4447 7.31596 3.09113 7.21429 7.31596 -46.3716 -42.2069 0 -1 -1 0.00205133 0.00265443 0.00217643 15.0573 -13.9583 -4.48737 
13479 1 13 D 0.4 -2.3022 6.44729 3.90427 7.9315 6.44729 -45.5584 -41.4897 0 -1 -1 -0.00559232 -0.00343835 0.00409034 -2.10504 0.294289 -2.21065 
6755 1 3 C 11.61 2.4422 6.44973 3.90892 7.93399 6.44973 -45.5538 -41.4872 0 -1 -1 -0.00400388 -0.00420606 0.00428358 -6.91571 -0.168187 43.169 
6761 1 4 H 1.008 0.03 6.65289 4.93205 7.79147 6.65289 -44.5306 -41.6298 0 -1 -1 0.0257258 0.0105613 -1.34911e-05 12.2677 22.8528 -4.04211 
12940 1 13 D 0.4 -2.3022 4.954 3.92123 1.22453 153.215 53.3839 50.6458 3 1 1 -0.00405384 -0.00678087 -0.00612045 -0.982409 0.485531 -2.34758 
5316 1 3 C 11.61 2.4422 4.95478 3.93477 1.22603 153.216 53.3975 50.6473 3 1 1 -0.00264406 -0.00626968 -0.00623994 30.992 -16.323 -27.7797 
5324 1 4 H 1.008 0.03 4.53964 4.82273 1.58151 152.8 54.2854 51.0027 3 1 1 0.0170908 -0.0100522 0.00152487 -23.4731 24.1701 6.10067 
6758 1 2 C 11.61 2.6898 4.59404 5.39022 5.99303 4.59404 -44.0725 -43.4282 0 -1 -1 -0.00209114 0.00677029 -0.00336313 14.3384 -25.0142 -2.079 
13482 1 12 D 0.4 -2.5798 4.58854 5.38006 5.99493 4.58854 -44.0826 -43.4263 0 -1 -1 -0.00238339 0.00741978 -0.00362482 -0.142631 2.11929 -0.546045 
5323 1 4 H 1.008 0.03 5.56195 4.15113 0.344666 153.823 53.6138 49.7659 3 1 1 -0.0102406 -0.0172242 -0.0225693 0.3708 9.38661 2.06332 
6765 1 4 H 1.008 0.03 5.25702 6.07555 6.56369 5.25702 -43.3871 -42.8575 0 -1 -1 -0.00524916 0.0161666 -0.0173559 1.88749 -13.8906 -15.6967 
6767 1 4 H 1.008 0.03 4.63704 5.53484 4.89523 4.63704 -43.9279 -44.526 0 -1 -1 -0.0143107 0.0031636 0.0135205 7.34513 2.40686 12.8705 
5326 1 4 H 1.008 0.03 2.41699 4.11998 0.56735 150.678 53.5827 49.9886 3 1 1 0.0067222 -0.0147406 0.00885566 -3.14431 -6.5487 -0.463967 
6766 1 4 H 1.008 0.03 3.64984 5.80207 6.25253 3.64984 -43.6606 -43.1687 0 -1 -1 -0.0103283 -0.0117362 -0.0372379 -21.5232 -4.27431 6.94022 
5322 1 4 H 1.008 0.03 5.33524 3.23298 3.17761 153.596 52.6957 52.5988 3 1 1 0.00750868 0.00449168 0.00469133 4.25843 4.83854 8.65176 
12939 1 13 D 0.4 -2.3022 5.89136 3.43031 2.26526 154.152 52.893 51.6865 3 1 1 -0.00296998 0.00261481 0.00587453 0.988842 -0.865 -0.00896104 
5315 1 3 C 11.61 2.4422 5.895 3.43852 2.27255 154.156 52.9012 51.6938 3 1 1 -0.00166383 0.00165407 0.00597924 11.4504 -5.83956 -1.19464 
5321 1 4 H 1.008 0.03 6.65861 4.21474 2.33626 154.919 53.6774 51.7575 3 1 1 -0.00913734 -0.0407949 0.0188224 -1.4257 0.664698 17.8149 
12941 1 11 D 0.4 -1.8447 4.0735 2.95107 0.749686 152.334 52.4138 50.1709 3 1 1 -0.00588754 0.000939094 0.00201399 -2.21718 1.05237 1.13733 
5317 1 1 O 15.6 1.4447 4.07626 2.95919 0.752787 152.337 52.4219 50.174 3 1 1 -0.00440608 0.00291114 0.00308808 -12.3155 -5.20049 2.2509 
12937 1 11 D 0.4 -1.8447 6.56226 2.2865 1.80042 154.823 51.7492 51.2217 3 1 1 0.0117222 0.00493336 0.00213791 1.00988 -0.559659 -0.0792958 
5313 1 1 O 15.6 1.4447 6.56152 2.29075 1.80731 154.822 51.7534 51.2285 3 1 1 0.0105346 0.00251226 0.00174277 2.48057 -12.7999 -15.1549 
6756 1 3 C 11.61 2.4422 5.01723 3.65632 7.59452 5.01723 -45.8064 -41.8267 0 -1 -1 -0.00652845 -0.0143191 0.00706906 -34.0572 0.111118 39.5396 
13480 1 13 D 0.4 -2.3022 5.02028 3.65238 7.59065 5.02028 -45.8103 -41.8306 0 -1 -1 -0.00599448 -0.0135056 0.00729793 -2.49179 -2.85039 3.09959 
6764 1 4 H 1.008 0.03 4.78125 2.61244 7.76967 4.78125 -46.8503 -41.6516 0 -1 -1 -0.0012382 -0.014783 -0.00256182 3.55422 -4.42215 -2.85985 
6763 1 4 H 1.008 0.03 4.32881 4.17039 8.33934 4.32881 -45.2923 -41.0819 0 -1 -1 -0.0131914 0.00336994 0.0026757 18.1915 -6.99565 -25.8423 
8173 1 4 H 1.008 0.03 1.36527 4.63059 4.53969 -48.055 -94.2948 -44.8815 -1 -2 -1 -0.0164466 0.034268 -0.0200354 -16.1649 -1.16891 -8.12096 
8166 1 2 C 11.61 2.6898 0.575738 4.90396 3.80116 -48.8445 -94.0214 -45.6201 -1 -2 -1 0.00071642 0.00508679 -0.00581796 19.649 -55.5203 -15.8701 
8174 1 4 H 1.008 0.03 1.03436 5.57485 3.13867 -48.3859 -93.3505 -46.2826 -1 -2 -1 -0.014994 -0.0149018 -0.00227318 11.5833 15.6667 -18.9009 
14010 1 12 D 0.4 -2.5798 0.569293 4.90079 3.80445 -48.8509 -94.0246 -45.6168 -1 -2 -1 0.000995689 0.00410045 -0.00633414 0.603051 -4.0472 -3.11215 
14 1 4 H 1.008 0.03 2.24912 1.94412 5.17912 2.24912 51.4068 -44.2421 0 1 -1 -0.0233269 -0.00520332 -0.0191339 -1.81047 -7.21664 -2.88802 
13 1 4 H 1.008 0.03 3.75395 1.98709 4.25307 3.75395 51.4498 -45.1682 0 1 -1 -0.0122365 -0.0185413 -0.0206974 -11.8334 3.08858 4.98268 
15 1 4 H 1.008 0.03 2.1898 2.47887 3.4832 2.1898 51.9416 -45.938 0 1 -1 0.0342824 0.0227369 -0.0141065 16.164 -24.001 18.2438 
15138 2 18 D 0.4 -1.3442 5.71526 6.59714 1.94963 104.556 56.0598 51.3709 2 1 1 -8.26073e-05 -0.000599484 0.000622569 -1.31737 0.744138 0.319541 
6 1 2 C 11.61 2.6898 2.67781 1.73979 4.19895 2.67781 51.2025 -45.2223 0 1 -1 6.32562e-05 0.00342405 -0.00725826 7.31435 42.2342 -26.5918 
10950 1 12 D 0.4 -2.5798 2.6697 1.73524 4.20063 2.6697 51.1979 -45.2206 0 1 -1 0.000836807 0.00384737 -0.00848115 1.39656 1.01959 -0.840128 
5 1 1 O 15.6 1.4447 2.5827 0.422959 3.72851 2.5827 49.8857 -45.6927 0 1 -1 -0.00113573 0.00206129 0.00772382 -2.79328 -7.71096 1.1043 
5131 1 4 H 1.008 0.03 0.789287 2.4379 1.48751 99.6298 2.4379 1.48751 2 0 0 -0.0273393 0.016107 -0.0142144 -7.91495 -24.7774 2.22698 
5328 1 4 H 1.008 0.03 6.66312 1.28277 3.63887 154.924 50.7455 53.0601 3 1 1 -0.0210148 -0.0168116 3.36265e-05 18.2065 16.544 -23.0089 
12938 1 12 D 0.4 -2.5798 7.32656 1.58657 2.75712 155.587 51.0493 52.1784 3 1 1 -0.00279301 -0.00553166 -8.86228e-05 0.348898 2.65421 1.11063 
11 1 4 H 1.008 0.03 3.22483 0.613931 1.71526 3.22483 50.0766 -47.706 0 1 -1 0.00508045 0.0101485 0.0264073 -5.79875 1.986 2.24064 
5314 1 2 C 11.61 2.6898 7.32947 1.58349 2.76553 155.59 51.0462 52.1868 3 1 1 -0.00211773 -0.00359104 0.000796101 -59.0203 -14.7103 44.2367 
5320 1 4 H 1.008 0.03 7.61611 0.619628 2.46741 155.877 50.0823 51.8886 3 1 1 0.0085086 0.014866 0.00249456 11.6799 -19.3375 -21.4831 
1088 1 4 H 1.008 0.03 1.62817 0.344341 8.43742 199.309 0.344341 8.43742 4 0 0 -0.0177803 -0.0264702 0.00917628 -1.34401 7.93968 0.298703 
6414 1 4 H 1.008 0.03 7.0793 0.620453 7.12194 -141.181 50.0831 -42.2993 -3 1 -1 0.0123781 0.00569111 0.0101938 5.1082 -6.81333 -1.5771 
5319 1 4 H 1.008 0.03 8.16004 2.07594 3.16817 156.421 51.5386 52.5894 3 1 1 0.00369833 -0.0153064 0.00638898 22.7212 19.6008 5.77535 
1079 1 4 H 1.008 0.03 2.44541 1.70896 7.42972 200.126 1.70896 7.42972 4 0 0 0.00479073 -0.00226867 -0.00860884 -41.4283 -29.7272 14.4311 
8359 1 4 H 1.008 0.03 1.47347 6.95093 7.83414 1.47347 6.95093 7.83414 0 0 0 -0.0171468 0.0186959 -0.0134599 0.278273 11.3044 3.93927 
10949 1 11 D 0.4 -1.8447 2.57852 0.423213 3.7328 2.57852 49.8859 -45.6884 0 1 -1 -0.001037 0.00159149 0.00723248 -1.60174 -1.32015 -0.880626 
10671 2 7 O 15.6 1.6345 3.0038 7.33814 2.7037 101.844 56.8008 52.1249 2 1 1 -0.00952737 -0.00264519 0.00500805 -9.97636 -11.2268 -9.13984 
11348 1 12 D 0.4 -2.5798 1.49726 1.02568 7.57376 199.178 1.02568 7.57376 4 0 0 -0.0114618 -0.000399175 -0.00374042 1.62331 0.636226 -1.63222 
8354 1 2 C 11.61 2.6898 0.574613 7.02309 8.45564 0.574613 7.02309 8.45564 0 0 0 0.0135838 0.00134554 -0.000683228 -7.12268 -24.3877 5.16342 
14078 1 12 D 0.4 -2.5798 0.574539 7.02274 8.45964 0.574539 7.02274 8.45964 0 0 0 0.0111646 0.000344351 -0.000744557 -2.13272 1.0634 2.32595 
8889 1 4 H 1.008 0.03 8.29222 6.95751 6.01609 57.7125 6.95751 203.701 1 0 4 -0.0261639 0.0133984 -0.0246934 -6.14173 -19.9603 -2.79403 
15135 2 16 D 0.4 -2.0238 3.00158 7.3316 2.69927 101.842 56.7943 52.1205 2 1 1 -0.00977626 -0.00303166 0.0053769 1.4445 -0.496337 0.716478 
1080 1 4 H 1.008 0.03 1.52606 0.349124 6.69738 199.207 0.349124 6.69738 4 0 0 0.006281 -0.00851627 5.66459e-05 -1.752 6.03919 8.00653 
10674 2 9 F 18.6 1.274 5.70877 6.60624 1.95143 104.549 56.0689 51.3727 2 1 1 0.00102891 4.38178e-05 0.0011541 -9.09185 14.8231 5.7147 
1074 1 2 C 11.61 2.6898 1.51844 1.01545 7.57534 199.199 1.01545 7.57534 4 0 0 -0.0110597 -0.000304677 -0.00339703 25.0102 22.4584 -21.0321 
12 1 4 H 1.008 0.03 4.52275 0.397709 2.89685 4.52275 49.8604 -46.5244 0 1 -1 0.00369159 -0.00214986 0.00668391 -17.8971 -7.4668 -5.07619 
6873 1 4 H 1.008 0.03 11.2331 0.946572 3.86608 11.2331 -48.5161 -45.5552 0 -1 -1 -0.00890791 0.00649941 -0.025118 -3.47759 15.1914 4.66269 
6754 1 2 C 11.61 2.6898 8.6463 3.13293 7.72467 8.6463 -46.3298 -41.6966 0 -1 -1 0.0076571 0.00750791 0.0035897 -15.1034 -41.9742 10.8034 
13478 1 12 D 0.4 -2.5798 8.63493 3.13096 7.72568 8.63493 -46.3317 -41.6955 0 -1 -1 0.00773573 0.0074138 0.00317768 1.59496 -5.77364 4.50143 
6768 1 4 H 1.008 0.03 9.16339 3.9999 7.44455 9.16339 -45.4628 -41.9767 0 -1 -1 -0.00178178 0.0250551 0.0104406 13.2275 25.306 -7.08541 
6759 1 4 H 1.008 0.03 9.2118 2.22952 7.37511 9.2118 -47.2332 -42.0461 0 -1 -1 -0.0280301 -0.00787844 0.0321256 -11.3634 19.1283 4.14509 
8376 1 4 H 1.008 0.03 10.1217 5.05958 3.30672 10.1217 -44.4031 52.728 0 -1 1 0.00386464 -0.0123439 -0.0212491 -15.4334 -0.273228 -2.72511 
6874 1 4 H 1.008 0.03 10.2051 2.37179 4.31292 10.2051 -47.0909 -45.1083 0 -1 -1 0.0111325 -0.00897219 -0.0247821 9.86779 -3.16786 -2.61563 
13519 1 11 D 0.4 -1.8447 12.1675 2.78161 3.59844 12.1675 -46.6811 -45.8228 0 -1 -1 0.000874343 -0.00134941 -0.00434493 0.849102 1.53435 -1.86271 
6865 1 1 O 15.6 1.4447 12.1615 2.77605 3.59405 12.1615 -46.6866 -45.8272 0 -1 -1 0.0014761 -0.00266213 -0.00559018 -6.95396 -6.05201 28.3885 
13521 1 13 D 0.4 -2.3022 11.2421 1.98075 4.32109 11.2421 -47.4819 -45.1001 0 -1 -1 0.00362402 -0.00134125 0.000606863 -3.49715 -2.25658 -4.39076 
6867 1 3 C 11.61 2.4422 11.2339 1.96745 4.31236 11.2339 -47.4952 -45.1089 0 -1 -1 0.00367674 -0.000430853 -0.000230985 4.28628 -2.97188 -18.5484 
6868 1 3 C 11.61 2.4422 11.7455 1.81236 5.70716 11.7455 -47.6503 -43.7141 0 -1 -1 -0.00717614 0.000915936 -0.000929001 -45.3336 -27.4771 64.1975 
13522 1 13 D 0.4 -2.3022 11.7506 1.81876 5.7099 11.7506 -47.6439 -43.7113 0 -1 -1 -0.00617726 0.00146448 -0.00243743 -4.83525 0.978577 -3.49053 
6869 1 1 O 15.6 1.4447 11.4894 2.90764 6.62497 11.4894 -46.5551 -42.7963 0 -1 -1 0.00582207 -0.00769538 -0.00805905 0.442439 -11.2323 -23.4218 
13523 1 11 D 0.4 -1.8447 11.485 2.90851 6.62768 11.485 -46.5542 -42.7935 0 -1 -1 0.0077225 -0.00905424 -0.00908434 0.56758 -2.86801 1.91251 
6877 1 4 H 1.008 0.03 13.3667 3.59159 6.63358 13.3667 -45.8711 -42.7877 0 -1 -1 -0.0103003 -0.00949632 0.00658112 34.6778 -7.80978 2.29678 
6870 1 2 C 11.61 2.6898 12.4075 3.97505 6.58139 12.4075 -45.4877 -42.8398 0 -1 -1 -0.00385634 0.0014249 -0.000745739 -28.3449 -12.3391 -4.65481 
13524 1 12 D 0.4 -2.5798 12.4073 3.97044 6.5807 12.4073 -45.4923 -42.8405 0 -1 -1 -0.00372885 0.00252638 -0.000854184 -3.31242 4.88792 1.00662 
6878 1 4 H 1.008 0.03 12.2171 4.48122 7.4951 12.2171 -44.9815 -41.9261 0 -1 -1 0.00716218 -0.00831348 0.0104552 0.759666 18.0076 12.1516 
6879 1 4 H 1.008 0.03 12.2903 4.64576 5.73667 12.2903 -44.8169 -43.6846 0 -1 -1 -0.00618311 0.029677 0.0155644 -1.28702 -5.76267 1.12128 
6871 1 4 H 1.008 0.03 12.683 3.40316 1.79602 12.683 -46.0595 -47.6252 0 -1 -1 -0.00321148 0.0063531 0.0400136 -4.50131 -6.44798 -5.69602 
7714 1 2 C 11.61 2.6898 15.1976 3.27372 4.4829 64.6179 3.27372 -292.044 1 0 -6 0.000578742 0.00280345 -0.00119608 -6.20045 32.5084 26.6516 
13838 1 12 D 0.4 -2.5798 15.2086 3.27205 4.48715 64.6289 3.27205 -292.04 1 0 -6 0.000509544 0.000397044 -0.00152819 -4.6561 -1.26864 2.54027 
7720 1 4 H 1.008 0.03 15.0278 2.78001 5.52448 64.4481 2.78001 -291.003 1 0 -6 0.0145643 -0.000821095 0.0163698 15.7502 8.03606 -52.2296 
7728 1 4 H 1.008 0.03 15.344 2.60752 3.61578 64.7643 2.60752 -292.912 1 0 -6 -0.0193254 -0.0104582 -0.0105579 -15.4424 -0.0126246 12.9247 
13520 1 12 D 0.4 -2.5798 11.9691 2.70373 2.23831 11.9691 -46.759 -47.1829 0 -1 -1 -0.00239295 0.00292349 0.000344642 -0.806504 -0.851714 -3.48388 
8370 1 2 C 11.61 2.6898 9.92823 6.04719 3.73276 9.92823 -43.4155 53.154 0 -1 1 0.00400942 -0.0022047 0.00138163 57.4102 10.6775 38.0736 
6866 1 2 C 11.61 2.6898 11.9656 2.69654 2.23212 11.9656 -46.7662 -47.1891 0 -1 -1 -0.00356655 0.00195445 0.00217816 10.6332 -20.1137 -34.7159 
14084 1 12 D 0.4 -2.5798 9.9218 6.04504 3.73293 9.9218 -43.4177 53.1542 0 -1 1 -0.00146928 -0.00493887 0.000899594 10.0691 9.89785 2.30666 
8375 1 4 H 1.008 0.03 9.92341 5.98788 4.85508 9.92341 -43.4748 54.2763 0 -1 1 0.0166868 0.00410833 0.0193539 3.6172 -9.51021 -24.551 
7719 1 4 H 1.008 0.03 14.2872 3.95642 4.381 63.7074 3.95642 -292.146 1 0 -6 0.0140599 -0.00211254 0.0251075 30.0029 -22.1357 -6.07158 
8369 1 1 O 15.6 1.4447 11.0169 6.94281 3.34701 11.0169 -42.5199 52.7682 0 -1 1 -0.000451428 0.00222757 -0.000572724 -43.2435 -10.8478 -10.4011 
14083 1 11 D 0.4 -1.8447 11.0139 6.94631 3.34519 11.0139 -42.5164 52.7664 0 -1 1 -0.00398235 0.00161227 -0.00274511 2.61183 -3.15372 6.23562 
8377 1 4 H 1.008 0.03 12.5287 5.55944 3.7308 12.5287 -43.9033 53.152 0 -1 1 -0.00364931 0.0270682 -0.0160359 -9.41708 3.12473 -3.40226 
6872 1 4 H 1.008 0.03 10.9777 2.95662 1.92139 10.9777 -46.5061 -47.4998 0 -1 -1 0.0192377 -0.0235366 -0.0157343 -13.9257 13.0263 1.03897 
8371 1 3 C 11.61 2.4422 12.2201 6.5932 3.93427 12.2201 -42.8695 53.3555 0 -1 1 0.00475312 -0.00366495 0.0122046 1.89065 -13.3382 2.29182 
6880 1 4 H 1.008 0.03 12.0676 1.66979 1.77823 12.0676 -47.7929 -47.643 0 -1 -1 -0.007747 -0.00203375 -0.010625 10.5223 25.3851 16.8447 
8378 1 4 H 1.008 0.03 12.0939 6.63861 5.02284 12.0939 -42.8241 54.4441 0 -1 1 0.0195154 -0.0141413 0.0162845 7.80374 11.1755 -4.68099 
14085 1 13 D 0.4 -2.3022 12.2182 6.6013 3.93401 12.2182 -42.8614 53.3552 0 -1 1 -9.11308e-05 -0.000631417 0.0114702 7.17416 -7.96001 -3.66871 
6875 1 4 H 1.008 0.03 12.734 1.41729 5.77731 12.734 -48.0454 -43.6439 0 -1 -1 0.00206957 -0.00959945 0.0140879 17.2884 -1.73676 -2.07865 
9425 1 1 O 15.6 1.4447 13.4722 7.09435 8.30957 13.4722 -42.3684 -90.5329 0 -1 -2 -0.00451872 0.00148363 0.00153803 11.3539 8.64089 18.4267 
9431 1 4 H 1.008 0.03 15.211 7.08152 7.14213 15.211 -42.3812 -91.7003 0 -1 -2 -0.00551542 0.0122846 -0.0150052 0.698786 -0.831185 -2.19426 
6876 1 4 H 1.008 0.03 11.0829 0.98143 6.16607 11.0829 -48.4813 -43.2552 0 -1 -1 -0.0151634 -0.00895061 -0.0375194 28.6448 30.531 -19.0433 
14087 1 11 D 0.4 -1.8447 13.8219 7.18618 2.05569 13.8219 -42.2765 51.4769 0 -1 1 0.000810595 0.00428724 0.00609366 1.06888 -1.80761 -0.724154 
7721 1 4 H 1.008 0.03 15.6882 5.79245 3.61472 65.1085 5.79245 -292.913 1 0 -6 -0.0182668 -0.0019258 0.0169643 16.2773 -5.63432 -4.24691 
7722 1 4 H 1.008 0.03 16.5856 4.72123 2.48457 66.0059 4.72123 -294.043 1 0 -6 -0.0177568 0.0138011 0.0160399 1.60499 6.29717 18.6592 
13839 1 13 D 0.4 -2.3022 16.5803 5.12924 3.5334 66.0005 5.12924 -292.994 1 0 -6 -0.00886446 -0.00922826 0.00331871 -3.74412 -3.52186 0.350836 
7715 1 3 C 11.61 2.4422 16.5714 5.13235 3.52581 65.9917 5.13235 -293.002 1 0 -6 -0.00862238 -0.00707527 0.00249171 -18.8626 -20.7 2.33832 
7713 1 1 O 15.6 1.4447 16.4103 4.06605 4.50681 65.8305 4.06605 -292.021 1 0 -6 -0.000750946 0.000384801 -0.00717265 -8.82804 5.54186 -0.525199 
13837 1 11 D 0.4 -1.8447 16.4125 4.06272 4.51229 65.8327 4.06272 -292.015 1 0 -6 0.000227807 0.000913286 -0.00841358 -2.09491 -0.17383 1.86608 
3591 1 4 H 1.008 0.03 9.44177 4.8253 0.865339 9.44177 -44.6374 0.865339 0 -1 0 0.00233371 0.02032 -0.0345623 1.77403 11.8627 18.7121 
6108 1 4 H 1.008 0.03 16.0706 0.844288 2.58112 16.0706 -48.6184 101.424 0 -1 2 -0.0209578 -0.0150326 0.00817105 3.73594 -13.4209 1.38113 
8808 1 4 H 1.008 0.03 16.6151 5.45183 8.40028 16.6151 -44.0109 156.664 0 -1 3 0.0254924 -0.00449866 0.00197646 -4.30217 6.69855 -11.5109 
8373 1 1 O 15.6 1.4447 13.8187 7.19015 2.05584 13.8187 -42.2725 51.4771 0 -1 1 -0.00111933 0.00272951 0.00583439 -18.3442 -14.6035 0.0702012 
8887 1 4 H 1.008 0.03 10.285 6.3994 7.41007 59.7052 6.3994 205.095 1 0 4 -0.00578311 -0.0104104 -0.0115135 -1.5062 19.5468 1.57565 
8384 1 4 H 1.008 0.03 9.03417 6.55386 3.56316 9.03417 -42.9088 52.9844 0 -1 1 0.0334907 -0.00970874 -0.00204782 -33.4627 1.07207 -22.8012 
14479 1 11 D 0.4 -1.8447 13.4699 7.09331 8.30244 13.4699 -42.3694 -90.54 0 -1 -2 -0.0037561 0.00126773 0.00219602 -1.50071 4.15616 1.27621 
8379 1 4 H 1.008 0.03 14.1736 7.15927 3.98094 14.1736 -42.3034 53.4022 0 -1 1 0.00952686 0.00688332 0.0185908 -1.05509 7.06032 3.42694 
8739 1 3 C 11.61 2.4422 21.7348 2.77262 0.73985 -77.1057 -46.6901 50.1611 -2 -1 1 -0.00643903 -0.00560666 -0.00507753 -5.39489 28.9146 18.5617 
8744 1 4 H 1.008 0.03 20.4184 4.99675 1.03764 -78.4221 -44.4659 50.4589 -2 -1 1 -0.0227248 0.00512856 -0.016196 32.509 -3.1416 -17.4105 
6110 1 4 H 1.008 0.03 19.1697 0.343442 2.64125 19.1697 -49.1193 101.484 0 -1 2 -0.00994701 0.00726043 -0.00218087 11.2398 4.13756 6.58171 
8743 1 4 H 1.008 0.03 22.2121 5.40045 0.448979 -76.6284 -44.0622 49.8702 -2 -1 1 0.000580393 -0.0214478 -0.0197214 -18.9163 -5.68305 10.6609 
5486 1 4 H 1.008 0.03 21.0447 1.29916 5.12105 21.0447 50.7619 -192.564 0 1 -4 0.00660604 0.0129257 0.0115539 -2.08601 12.3511 0.111921 
8812 1 4 H 1.008 0.03 17.4143 1.97546 6.6636 17.4143 -47.4872 154.927 0 -1 3 -0.0205636 0.0193357 -0.00913853 2.1755 10.7267 9.77156 
13842 1 12 D 0.4 -2.5798 20.1819 5.3006 4.34315 69.6021 5.3006 -292.184 1 0 -6 0.00233986 -0.00199315 -0.00305684 -0.138107 -1.04401 -1.12287 
7718 1 2 C 11.61 2.6898 20.1795 5.30291 4.33628 69.5998 5.30291 -292.191 1 0 -6 0.000720935 0.000664434 -0.00102572 -3.25406 -61.4058 -43.8309 
7717 1 1 O 15.6 1.4447 18.8978 4.7523 3.95726 68.3181 4.7523 -292.57 1 0 -6 0.00162952 -0.00272617 -0.00739762 -6.23169 58.0715 7.37116 
13841 1 11 D 0.4 -1.8447 18.9025 4.75086 3.96149 68.3228 4.75086 -292.566 1 0 -6 0.00125869 -0.00264478 -0.00827564 -0.0903092 -2.61925 -0.0704764 
5485 1 4 H 1.008 0.03 22.605 0.915851 5.72966 22.605 50.3785 -191.955 0 1 -4 -0.00662247 0.00173065 -0.011771 8.21143 -11.2161 3.99058 
5487 1 4 H 1.008 0.03 22.5721 2.06493 4.50051 22.5721 51.5276 -193.184 0 1 -4 0.0103415 0.0249814 0.0181991 -4.38992 14.5708 -7.51833 
8811 1 4 H 1.008 0.03 18.6323 2.39042 5.60296 18.6323 -47.0723 153.867 0 -1 3 0.00661793 -0.00830408 -0.00407756 13.0741 -4.01694 -7.97445 
13840 1 13 D 0.4 -2.3022 17.8813 5.83665 3.90095 67.3016 5.83665 -292.626 1 0 -6 0.000688187 0.000586759 0.0063999 2.93765 -0.315617 0.982698 
7716 1 3 C 11.61 2.4422 17.8819 5.84393 3.89303 67.3021 5.84393 -292.634 1 0 -6 0.000892626 0.00071188 0.0056213 15.801 -33.0567 -7.56485 
7723 1 4 H 1.008 0.03 17.76 6.40834 4.8276 67.1802 6.40834 -291.7 1 0 -6 0.023573 0.00896318 -0.0318936 2.33672 -10.1895 -1.2652 
8810 1 4 H 1.008 0.03 17.9566 4.4199 6.46224 17.9566 -45.0428 154.726 0 -1 3 -0.00105711 -0.0344864 -0.00526319 -4.19892 10.5179 0.342412 
8804 1 3 C 11.61 2.4422 18.4347 2.38861 6.66112 18.4347 -47.0741 154.925 0 -1 3 0.00493806 -0.00577744 0.00684935 -43.8148 28.2656 -21.9869 
14248 1 13 D 0.4 -2.3022 18.4388 2.38625 6.67412 18.4388 -47.0764 154.938 0 -1 3 0.00285085 -0.00481018 0.00750853 -0.458829 -3.24367 -0.511909 
8803 1 3 C 11.61 2.4422 18.5464 3.84746 7.15889 18.5464 -45.6152 155.423 0 -1 3 -0.00170777 0.00234607 0.00332186 -19.3198 -16.9016 9.19209 
14247 1 13 D 0.4 -2.3022 18.5507 3.84483 7.1731 18.5507 -45.6179 155.437 0 -1 3 -0.00317408 0.00390712 0.0041963 3.47109 0.00780572 1.16599 
8809 1 4 H 1.008 0.03 19.5665 4.20017 7.11815 19.5665 -45.2625 155.382 0 -1 3 0.00700403 0.0273284 -0.0453475 6.2507 3.27037 -1.25864 
10157 1 4 H 1.008 0.03 23.1875 4.35238 5.33629 23.1875 53.8151 104.179 0 1 2 -0.00320503 -0.0143044 -0.0209804 15.2621 -9.0475 0.0951221 
13002 1 12 D 0.4 -2.5798 22.0801 1.17281 4.82099 22.0801 50.6355 -192.864 0 1 -4 0.00147442 -0.00700617 -0.00922914 -3.43891 3.98041 -0.410223 
5478 1 2 C 11.61 2.6898 22.0812 1.17045 4.82486 22.0812 50.6331 -192.86 0 1 -4 0.00197293 -0.00348612 -0.00555714 -3.74264 -13.7917 -10.3035 
7727 1 4 H 1.008 0.03 20.8588 4.49301 4.62335 70.279 4.49301 -291.904 1 0 -6 0.0118894 -0.0341822 0.017199 -6.64428 4.4714 11.4908 
10149 1 1 O 15.6 1.4447 24.3082 3.42727 6.94735 24.3082 52.89 105.79 0 1 2 -0.00292658 -0.0132136 -0.00778463 -10.512 -0.680253 8.99738 
14753 1 11 D 0.4 -1.8447 24.3092 3.43016 6.94476 24.3092 52.8929 105.787 0 1 2 -0.00133338 -0.0120378 -0.00873012 2.71371 0.672721 -3.52695 
8805 1 1 O 15.6 1.4447 19.2537 1.59601 7.37862 19.2537 -47.8667 155.642 0 -1 3 -0.00526973 -0.000532529 -0.00825828 30.1426 -15.3234 36.5016 
14249 1 11 D 0.4 -1.8447 19.2541 1.59641 7.38366 19.2541 -47.8663 155.647 0 -1 3 -0.00418367 0.000616805 -0.0109371 7.62051 -1.60913 -5.62796 
10150 1 2 C 11.61 2.6898 23.1854 4.10445 6.40075 23.1854 53.5671 105.243 0 1 2 -0.00222006 -0.00393654 0.00744962 -16.294 2.98386 -22.9918 
14754 1 12 D 0.4 -2.5798 23.1884 4.10756 6.39645 23.1884 53.5703 105.239 0 1 2 -0.00334271 -0.00237461 0.0111555 -5.51052 1.80073 2.88745 
10158 1 4 H 1.008 0.03 23.0411 5.07805 6.83894 23.0411 54.5407 105.681 0 1 2 -0.0241217 -0.037493 -0.004118 0.305129 6.55715 9.34036 
7724 1 4 H 1.008 0.03 18.1384 6.59147 3.1415 67.5587 6.59147 -293.386 1 0 -6 0.00595739 -0.0473199 -0.0129137 0.321115 -2.97189 -2.23814 
8801 1 1 O 15.6 1.4447 18.0403 3.93776 8.50443 18.0403 -45.5249 156.768 0 -1 3 -0.000151612 -0.00120815 -0.00135296 -11.2797 2.78897 -15.5637 
14245 1 11 D 0.4 -1.8447 18.0384 3.93753 8.51226 18.0384 -45.5252 156.776 0 -1 3 2.15566e-05 -0.00262543 0.000609065 2.5218 1.06999 1.32644 
10159 1 4 H 1.008 0.03 22.2465 3.54374 6.52255 22.2465 53.0064 105.365 0 1 2 -0.0125759 0.00937501 -0.0118281 6.4501 7.24915 -1.45075 
6111 1 4 H 1.008 0.03 18.1198 1.06644 1.48571 18.1198 -48.3963 100.328 0 -1 2 -0.00772464 -0.0179073 0.0150319 -4.41055 -0.31229 -7.30411 
10154 1 4 H 1.008 0.03 22.2551 1.96813 7.8325 22.2551 51.4308 106.675 0 1 2 -0.00203271 -0.00909132 -0.00512792 -0.826783 8.09117 4.88156 
14749 1 11 D 0.4 -1.8447 23.8858 0.93367 8.37274 23.8858 50.3964 107.215 0 1 2 0.000169235 0.00161426 0.00330442 -2.11068 -0.864491 3.25743 
10145 1 1 O 15.6 1.4447 23.8787 0.935152 8.37818 23.8787 50.3978 107.221 0 1 2 0.00102342 -0.000320074 0.000508666 -3.58247 -8.14867 15.4031 
7725 1 4 H 1.008 0.03 20.1168 6.07372 4.96869 69.5371 6.07372 -291.559 1 0 -6 -0.0335631 -0.022541 0.0174685 -2.62057 38.3584 52.1314 
7726 1 4 H 1.008 0.03 20.7412 5.72651 3.54141 70.1615 5.72651 -292.986 1 0 -6 -0.000290835 0.0105682 0.00264705 -1.2814 7.63617 -23.2049 
6107 1 4 H 1.008 0.03 16.9555 0.653398 4.06857 16.9555 -48.8093 102.911 0 -1 2 -0.0214881 0.0235639 -0.00186058 6.37171 -8.05412 -8.06328 
14752 1 13 D 0.4 -2.3022 24.0544 3.2177 8.33562 24.0544 52.6804 107.178 0 1 2 0.00126287 0.00237012 -0.00422646 -2.30853 -3.76776 -3.13971 
10148 1 3 C 11.61 2.4422 24.0491 3.21529 8.33944 24.0491 52.678 107.182 0 1 2 0.00100722 0.00193399 -0.00599389 41.6818 -20.4902 -13.6538 
8745 1 4 H 1.008 0.03 20.8582 2.55978 1.35938 -77.9823 -46.9029 50.7806 -2 -1 1 -0.0154303 0.0257747 0.00851058 0.280682 5.16379 -0.567255 
8746 1 4 H 1.008 0.03 22.5061 3.14716 1.45361 -76.3344 -46.3155 50.8748 -2 -1 1 -0.0137905 -0.0405143 0.0190329 -6.47723 -4.72465 -16.0924 
8747 1 4 H 1.008 0.03 22.7478 0.855769 0.710302 -76.0926 -48.6069 50.1315 -2 -1 1 -0.0153241 0.00314812 -0.00449284 0.803015 0.480514 9.54694 
14223 1 13 D 0.4 -2.3022 21.7331 2.77363 0.734262 -77.1073 -46.6891 50.1555 -2 -1 1 -0.00694144 -0.00655428 -0.0062189 -1.21828 2.50175 -0.0525611 
6762 1 4 H 1.008 0.03 6.49059 3.74486 9.03741 6.49059 -45.7178 -40.3838 0 -1 -1 0.00244631 -0.0331099 -0.0220855 7.23109 -0.861635 -17.3664 
2460 1 4 H 1.008 0.03 3.61582 2.43151 11.6003 3.61582 101.357 11.6003 0 2 0 -0.0506585 -0.0083739 0.0133894 4.00324 -17.2836 -0.483868 
14081 1 11 D 0.4 -1.8447 1.53461 4.34258 11.3994 1.53461 4.34258 11.3994 0 0 0 -0.00281598 -0.00208828 -0.000844852 -0.347091 0.381692 -3.02891 
6413 1 4 H 1.008 0.03 6.7182 0.524468 8.82891 -141.543 49.9872 -40.5923 -3 1 -1 -0.00464215 0.0263116 -0.00625703 -10.4922 -17.8685 -18.1683 
1163 1 4 H 1.008 0.03 6.7222 7.22536 10.8373 56.1424 -42.2373 159.101 1 -1 3 0.00203781 -0.00945889 -0.00630507 -8.10128 -14.9882 18.2999 
2464 1 4 H 1.008 0.03 5.2596 0.734527 15.5734 5.2596 99.6599 15.5734 0 2 0 -0.00733656 -0.0182663 0.00127705 -1.32211 -15.8376 -3.46269 
8363 1 4 H 1.008 0.03 1.25965 6.0705 12.3002 1.25965 6.0705 12.3002 0 0 0 0.0176555 0.0133793 -0.0125621 20.9382 21.6866 -1.07802 
8357 1 1 O 15.6 1.4447 1.53523 4.34833 11.4033 1.53523 4.34833 11.4033 0 0 0 -0.00328605 -0.00100886 -0.000301211 -2.39756 -20.8508 -5.28948 
8358 1 2 C 11.61 2.6898 0.780643 3.79586 12.4898 0.780643 3.79586 12.4898 0 0 0 0.000891302 0.00836238 -0.00630435 -3.45842 48.6789 -22.4323 
8365 1 4 H 1.008 0.03 1.3859 3.69669 13.3189 1.3859 3.69669 13.3189 0 0 0 -0.00401542 -0.00755592 0.0133293 24.2596 -10.3507 31.3863 
8356 1 3 C 11.61 2.4422 2.00879 5.65847 11.6111 2.00879 5.65847 11.6111 0 0 0 -0.00353506 -0.00496898 -0.000310907 -11.2414 -3.04313 -2.31091 
14080 1 13 D 0.4 -2.3022 2.00084 5.65123 11.5989 2.00084 5.65123 11.5989 0 0 0 -0.00438771 -0.00571779 0.000732928 2.4819 -0.294717 0.804527 
14079 1 13 D 0.4 -2.3022 2.06033 6.3721 10.2757 2.06033 6.3721 10.2757 0 0 0 0.00857383 -0.00398674 0.000485331 2.61198 -2.70453 1.73461 
8355 1 3 C 11.61 2.4422 2.0678 6.37687 10.2811 2.0678 6.37687 10.2811 0 0 0 0.00980525 -0.0044291 -0.000442137 -36.2429 -48.7086 -21.9826 
5068 1 4 H 1.008 0.03 2.12765 6.87249 16.2447 51.5479 6.87249 115.087 1 0 2 -0.00273326 -0.00996043 0.000434022 -6.66449 -3.8854 46.2279 
8362 1 4 H 1.008 0.03 2.81762 5.83545 9.69479 2.81762 5.83545 9.69479 0 0 0 -0.00872352 -0.0103795 -0.0156656 -8.15804 2.3628 -7.71092 
5062 1 2 C 11.61 2.6898 4.58405 6.19426 15.481 54.0043 6.19426 114.324 1 0 2 -0.00280597 0.00349881 -0.00455743 -9.31601 66.8166 -31.1994 
5070 1 4 H 1.008 0.03 4.60532 6.22614 16.5325 54.0256 6.22614 115.375 1 0 2 -0.0180825 0.00250714 -0.0104152 0.673107 -6.47152 26.1178 
5069 1 4 H 1.008 0.03 4.17373 5.26771 15.1477 53.594 5.26771 113.99 1 0 2 0.0143365 0.00981686 -0.00933017 5.61131 -19.031 -7.91008 
12846 1 12 D 0.4 -2.5798 4.58622 6.19864 15.4787 54.0065 6.19864 114.321 1 0 2 -0.00707374 -0.0012697 -0.000294562 4.55344 -5.00099 5.64562 
12845 1 11 D 0.4 -1.8447 3.70075 7.28575 15.0607 53.121 7.28575 113.903 1 0 2 -0.00226696 -0.000412587 -0.00557948 6.4915 2.11636 5.87558 
5061 1 1 O 15.6 1.4447 3.69916 7.28539 15.0644 53.1194 7.28539 113.907 1 0 2 -0.00898865 -0.00192663 -0.00111055 18.7441 -25.0249 -4.44375 
5071 1 4 H 1.008 0.03 5.6254 6.4432 15.1377 55.0456 6.4432 113.98 1 0 2 0.00479108 -0.0109212 0.00707241 -21.2764 -14.8377 1.59451 
2458 1 4 H 1.008 0.03 5.65736 2.46717 13.0602 5.65736 101.393 13.0602 0 2 0 0.00835227 0.00056313 -0.0178152 5.43667 29.582 9.78773 
5067 1 4 H 1.008 0.03 2.00611 6.0989 14.8203 51.4264 6.0989 113.663 1 0 2 0.0145541 0.0174372 0.00221975 -0.82755 -30.8809 -18.9127 
12844 1 13 D 0.4 -2.3022 2.33337 6.99466 15.2384 51.7536 6.99466 114.081 1 0 2 -0.00907257 -0.00153412 0.00342293 4.16658 1.05146 -0.0107453 
5060 1 3 C 11.61 2.4422 2.3296 6.989 15.2501 51.7498 6.989 114.093 1 0 2 -0.00934728 -0.00348483 0.00225837 -12.8447 39.5368 -18.2962 
8364 1 4 H 1.008 0.03 3.05862 5.65794 11.902 3.05862 5.65794 11.902 0 0 0 -0.00284442 0.0127107 0.00392269 -5.09817 -1.71429 22.7106 
11864 1 12 D 0.4 -2.5798 4.4852 1.43363 15.2862 4.4852 100.359 15.2862 0 2 0 -0.00844824 -0.00573549 -0.00203255 -0.159494 -3.00388 1.7872 
14077 1 11 D 0.4 -1.8447 0.726518 6.35666 9.71844 0.726518 6.35666 9.71844 0 0 0 0.00231648 0.00721459 0.0016044 3.61158 -2.17023 2.03129 
1081 1 4 H 1.008 0.03 0.867585 3.13331 8.84891 198.549 3.13331 8.84891 4 0 0 -0.00978012 0.0217866 0.0217529 -10.1363 -5.94508 5.8385 
8353 1 1 O 15.6 1.4447 0.735096 6.35504 9.72002 0.735096 6.35504 9.72002 0 0 0 0.00121135 0.00711714 0.00310185 8.03701 4.59999 -11.099 
15267 2 18 D 0.4 -1.3442 0.484172 3.05746 16.648 49.9044 101.983 115.491 1 2 2 -0.00351895 0.00417806 -0.000566071 -1.55425 0.477039 -0.1359 
10803 2 9 F 18.6 1.274 0.481687 3.06373 16.6519 49.9019 101.989 115.494 1 2 2 -0.00412893 0.00383206 0.000337105 -15.2404 -1.77524 13.2722 
2456 1 4 H 1.008 0.03 4.84844 2.37909 15.7556 4.84844 101.304 15.7556 0 2 0 0.0141783 -0.00906982 0.0136688 -11.4487 -6.40376 -18.3429 
8366 1 4 H 1.008 0.03 0.337163 2.88899 12.232 0.337163 2.88899 12.232 0 0 0 -0.00568556 0.0276008 0.000699746 -12.2957 -29.58 -6.87373 
2449 1 1 O 15.6 1.4447 4.08855 1.41799 13.9644 4.08855 100.343 13.9644 0 2 0 -0.00167555 0.00714672 0.00416673 -15.9032 1.61754 0.242422 
2450 1 2 C 11.61 2.6898 4.48402 1.4308 15.296 4.48402 100.356 15.296 0 2 0 -0.0126007 -0.00416258 -0.00139022 -12.9733 20.1994 32.3649 
11865 1 13 D 0.4 -2.3022 5.04291 1.60872 12.9823 5.04291 100.534 12.9823 0 2 0 9.73878e-05 0.00139345 0.00745029 4.14679 -2.3543 2.53454 
2459 1 4 H 1.008 0.03 5.0472 1.85646 10.8331 5.0472 100.782 10.8331 0 2 0 -0.00305683 0.0304356 -0.0245062 -3.41574 -6.08548 0.116227 
14082 1 12 D 0.4 -2.5798 0.778646 3.79209 12.484 0.778646 3.79209 12.484 0 0 0 0.000644386 0.00570571 -0.0056366 -0.938019 3.17324 -2.54128 
11866 1 13 D 0.4 -2.3022 4.32803 1.56935 11.6159 4.32803 100.495 11.6159 0 2 0 0.00460251 -0.00713089 0.00703606 -2.40545 2.23036 -5.84093 
2451 1 3 C 11.61 2.4422 5.04898 1.6143 12.9886 5.04898 100.54 12.9886 0 2 0 -0.00114235 0.00159809 0.0055823 -5.7103 -19.1555 -32.019 