ITEM: TIMESTEP
5000
ITEM: NUMBER OF ATOMS
15372
ITEM: BOX BOUNDS pp pp pp
3.1837868380704393e-01 4.9738621316192024e+01
3.1765217768984755e-01 4.9780347822312713e+01
3.0338504412521772e-01 4.9724614955871722e+01
ITEM: ATOMS id mol type element mass q x y z xu yu zu ix iy iz vx vy vz fx fy fz 
1519 1 4 H 1.008 0.03 6.94384 5.03202 1.21757 56.3641 -44.4307 1.21757 1 -1 0 -0.0018404 -0.0175181 0.00583371 10.7877 12.4271 -22.4904 
3059 1 3 C 11.61 2.4422 2.67587 3.04026 4.38049 52.0961 3.04026 53.8017 1 0 1 0.0017936 0.00430659 -0.0106644 -16.4892 -34.5724 17.16 
12093 1 13 D 0.4 -2.3022 2.68268 3.04861 4.38003 52.1029 3.04861 53.8013 1 0 1 0.00210254 0.00622271 -0.0130348 -4.60283 -2.36883 4.86263 
3066 1 4 H 1.008 0.03 3.48345 2.51513 3.86928 52.9037 2.51513 53.2905 1 0 1 0.00260132 -0.0126745 0.0154887 -5.9195 1.23474 -9.88794 
3060 1 3 C 11.61 2.4422 1.93401 4.05438 3.55841 51.3543 4.05438 52.9796 1 0 1 0.000411833 0.00912754 -0.0011252 5.71427 25.4016 9.88374 
12514 1 13 D 0.4 -2.3022 7.52213 6.61861 5.76771 56.9424 6.61861 5.76771 1 0 0 -0.00308845 -0.000393895 -0.00290078 0.75988 6.08342 6.39012 
12094 1 13 D 0.4 -2.3022 1.94393 4.05986 3.56508 51.3642 4.05986 52.9863 1 0 1 -0.000118779 0.0087332 4.11972e-05 -3.73903 0.844049 -0.0908884 
3064 1 4 H 1.008 0.03 4.8984 2.34866 5.54346 54.3186 2.34866 54.9647 1 0 1 0.00348664 -0.017807 0.0146156 6.24209 3.65031 4.25027 
12092 1 12 D 0.4 -2.5798 4.15001 2.77671 6.21202 53.5703 2.77671 55.6333 1 0 1 -0.00395557 -0.00210271 -0.00119818 -4.30479 -0.453893 2.32785 
3061 1 1 O 15.6 1.4447 2.80455 5.01016 2.96042 52.2248 5.01016 52.3816 1 0 1 0.00254133 -0.00323978 0.00687903 0.887528 -13.195 -22.9427 
3058 1 2 C 11.61 2.6898 4.14853 2.76893 6.21486 53.5688 2.76893 55.6361 1 0 1 -0.0027618 -0.000696821 -0.00178995 -21.1824 22.6616 4.37198 
12091 1 11 D 0.4 -1.8447 3.23097 3.67782 5.54768 52.6512 3.67782 54.9689 1 0 1 0.00160467 -0.0055543 0.00307522 -1.81729 -0.0251293 -0.924171 
3057 1 1 O 15.6 1.4447 3.22953 3.67231 5.54303 52.6498 3.67231 54.9643 1 0 1 -1.21201e-05 -0.00646891 0.000589957 16.608 -28.624 -1.66901 
14952 2 18 D 0.4 -1.3442 3.33641 0.842491 1.82311 3.33641 0.842491 1.82311 0 0 0 0.00504739 -0.00416372 -0.000741374 -0.962691 -0.917803 -5.29083 
3072 1 4 H 1.008 0.03 3.59938 1.95194 6.66433 53.0196 1.95194 56.0856 1 0 1 0.00519311 0.00527559 -0.0373248 -3.53093 -6.77898 -2.28857 
12095 1 11 D 0.4 -1.8447 2.80355 5.02126 2.9633 52.2238 5.02126 52.3845 1 0 1 0.00238443 -0.00483248 0.00629204 5.20245 -5.02664 0.676675 
10488 2 9 F 18.6 1.274 3.33971 0.839713 1.80985 3.33971 0.839713 1.80985 0 0 0 0.00598819 -0.00399982 5.05045e-05 9.16881 1.79764 7.02661 
3067 1 4 H 1.008 0.03 1.22935 4.52011 4.27543 50.6496 4.52011 53.6967 1 0 1 -0.00295693 -0.00840609 -0.0209433 4.26122 1.73697 -14.9356 
3063 1 4 H 1.008 0.03 4.56147 3.30043 7.08518 53.9817 3.30043 56.5064 1 0 1 -0.0131463 0.0167862 -0.0355373 7.18924 -2.5897 -12.1898 
3065 1 4 H 1.008 0.03 1.87062 2.25793 4.62601 51.2909 2.25793 54.0472 1 0 1 0.00983429 -0.0109666 0.0062291 34.8691 23.5592 -1.07001 
3068 1 4 H 1.008 0.03 1.37638 3.619 2.76386 50.7966 3.619 52.1851 1 0 1 0.00943754 -0.00384554 -0.000656999 -14.5282 -12.225 -8.56373 
3071 1 4 H 1.008 0.03 2.92367 4.02108 1.004 52.3439 4.02108 50.4252 1 0 1 -0.0118778 0.0168304 0.00742029 -0.306646 9.15379 0.782852 
3062 1 2 C 11.61 2.6898 3.5271 4.46462 1.80411 52.9473 4.46462 51.2253 1 0 1 -0.00793064 -0.00298766 0.000350128 0.77586 -6.61966 51.1677 
12096 1 12 D 0.4 -2.5798 3.52568 4.47395 1.81181 52.9459 4.47395 51.233 1 0 1 -0.008207 -0.000525604 -0.00233086 1.49716 -3.3304 3.67403 
3177 1 4 H 1.008 0.03 7.01404 3.02913 6.5221 56.4343 101.955 -92.3204 1 2 -2 0.0151094 0.0260901 0.00511082 14.2929 -18.2105 -23.4366 
3894 1 2 C 11.61 2.6898 2.62827 6.31787 6.49938 2.62827 -142.07 6.49938 0 -3 0 -0.00284284 -0.00351263 0.00619465 17.9919 31.3753 38.4278 
3903 1 4 H 1.008 0.03 3.65379 6.20809 6.90348 3.65379 -142.18 6.90348 0 -3 0 0.0181671 0.00676022 0.0257097 -10.4795 -17.8722 -15.0373 
12408 1 12 D 0.4 -2.5798 2.62999 6.32995 6.50674 2.62999 -142.058 6.50674 0 -3 0 -0.00382826 -0.00524268 0.00685495 -2.99738 3.93777 4.35248 
6985 1 4 H 1.008 0.03 0.590733 2.12742 6.44435 50.011 51.5901 -42.9769 1 1 -1 0.00843758 -0.00926672 -0.00978313 -16.1527 6.84216 19.9372 
3178 1 4 H 1.008 0.03 8.49558 3.51077 5.75795 57.9158 102.436 -93.0845 1 2 -2 -0.0184484 0.00614319 -0.0123366 2.47874 -0.799772 4.44102 
12135 1 13 D 0.4 -2.3022 8.02517 2.63744 6.22508 57.4454 101.563 -92.6174 1 2 -2 -0.00609162 -0.00181075 -0.00501714 0.488655 -0.237701 -3.24341 
12133 1 11 D 0.4 -1.8447 8.17564 1.56632 5.20823 57.5959 100.492 -93.6342 1 2 -2 -0.00257448 -7.6535e-05 -0.000401886 8.88588 0.984844 4.50017 
3171 1 3 C 11.61 2.4422 8.02995 2.64923 6.21823 57.4502 101.575 -92.6242 1 2 -2 -0.00584387 -0.00249046 -0.00318374 -5.22834 -17.8897 -10.9154 
3169 1 1 O 15.6 1.4447 8.17923 1.57181 5.20831 57.5995 100.497 -93.6342 1 2 -2 -0.00599731 0.000855555 0.000327959 -24.3504 19.7963 42.0581 
3175 1 4 H 1.008 0.03 7.6418 1.2464 3.24843 57.062 100.172 -95.594 1 2 -2 -0.011253 0.00597858 0.0303206 2.43352 -0.157435 2.10426 
3170 1 2 C 11.61 2.6898 8.01872 2.03937 3.89984 57.439 100.965 -94.9426 1 2 -2 0.0042627 0.000395422 -0.000199753 12.928 -8.67218 -18.5173 
12134 1 12 D 0.4 -2.5798 8.02526 2.03717 3.90115 57.4455 100.963 -94.9413 1 2 -2 -0.00107602 -0.00170663 -0.000158558 -12.4042 -0.731358 1.67816 
3893 1 1 O 15.6 1.4447 2.20834 7.29416 7.52507 2.20834 -141.094 7.52507 0 -3 0 -0.00195852 0.0026804 -0.000389118 9.39429 -19.1018 -28.9798 
12407 1 11 D 0.4 -1.8447 2.21533 7.29558 7.52828 2.21533 -141.093 7.52828 0 -3 0 -0.00408841 0.00342613 0.00126427 -3.41403 1.02335 0.436169 
3900 1 4 H 1.008 0.03 0.38049 6.91426 6.77189 0.38049 -141.474 6.77189 0 -3 0 0.0243614 -0.0218073 0.0196495 -17.5398 -3.30452 14.5151 
3664 1 4 H 1.008 0.03 6.37885 4.34585 8.47213 204.06 4.34585 57.8934 4 0 1 0.00941727 -0.00148032 -0.0171861 -13.6374 -8.1152 -12.0002 
3069 1 4 H 1.008 0.03 4.20594 3.67717 2.18271 53.6262 3.67717 51.6039 1 0 1 -0.00750762 0.000366943 0.00308862 -9.81161 6.80741 -8.13093 
7134 1 4 H 1.008 0.03 3.35409 7.2939 2.7486 151.615 106.219 2.7486 3 2 0 0.00595221 0.0123795 -0.00661513 2.46733 -4.2914 7.65477 
12137 1 11 D 0.4 -1.8447 7.92459 1.45649 8.35615 57.3448 100.382 -90.4863 1 2 -2 -0.00425183 -0.00201705 -0.000530501 0.609539 -1.00515 3.65951 
3902 1 4 H 1.008 0.03 1.97743 5.44508 6.59896 1.97743 -142.943 6.59896 0 -3 0 0.0188896 0.0137701 -0.0323577 9.61626 -4.79478 -0.812433 
3173 1 1 O 15.6 1.4447 7.92655 1.45417 8.35236 57.3468 100.38 -90.4901 1 2 -2 -0.00391739 -0.000802973 -0.000764733 -4.15767 -24.6713 -0.319181 
4191 1 4 H 1.008 0.03 5.63977 5.41451 4.02228 55.06 5.41451 4.02228 1 0 0 0.00164172 0.0119281 -0.0128444 8.85499 -12.4581 9.69062 
3070 1 4 H 1.008 0.03 4.22904 5.22011 1.52406 53.6493 5.22011 50.9453 1 0 1 0.0206116 -0.027942 0.0126538 2.48299 10.9375 -19.6596 
14951 2 18 D 0.4 -1.3442 5.24846 1.84231 1.50334 5.24846 1.84231 1.50334 0 0 0 -0.00587876 0.000255799 0.00551276 -1.63432 -1.11617 -2.79369 
3184 1 4 H 1.008 0.03 7.35545 2.87292 3.7973 56.7757 101.798 -95.0452 1 2 -2 0.00745227 -0.00804555 0.027333 -12.4854 9.34848 2.33361 
4188 1 4 H 1.008 0.03 6.96455 5.82472 6.21091 56.3848 5.82472 6.21091 1 0 0 -0.0171131 0.0183841 0.0280502 -1.66724 -13.6669 8.63531 
10487 2 9 F 18.6 1.274 5.24475 1.83527 1.49266 5.24475 1.83527 1.49266 0 0 0 -0.0044611 0.000198033 0.00588446 0.574529 -11.1759 18.8507 
6986 1 4 H 1.008 0.03 1.27146 1.17098 7.67409 50.6917 50.6337 -41.7471 1 1 -1 -0.00193763 -0.0160251 -0.0262548 -12.2255 -3.77016 0.950796 
4190 1 4 H 1.008 0.03 5.30596 7.08672 4.25354 54.7262 7.08672 4.25354 1 0 0 0.0227289 0.0175886 -0.02905 10.9393 6.36227 3.11583 
4180 1 3 C 11.61 2.4422 7.51801 6.62928 5.77311 56.9383 6.62928 5.77311 1 0 0 -0.00291623 0.00122097 -0.00397082 13.3952 40.117 -20.1158 
3901 1 4 H 1.008 0.03 2.74369 6.60295 5.43888 2.74369 -141.785 5.43888 0 -3 0 0.0210109 -0.00857581 0.0225116 -8.02252 6.18817 12.0266 
10485 2 8 C 11.61 1.9173 4.55277 0.719881 1.2735 4.55277 0.719881 1.2735 0 0 0 -0.00654363 0.00482769 -0.00531725 11.3975 -20.1041 -22.4655 
14949 2 17 D 0.4 -1.7782 4.55341 0.720789 1.27127 4.55341 0.720789 1.27127 0 0 0 -0.00687305 0.00890865 0.000102794 0.50657 -1.5979 4.86402 
4189 1 4 H 1.008 0.03 6.18969 6.50034 2.85015 55.6099 6.50034 2.85015 1 0 0 0.0317639 0.0121973 0.047125 -8.89332 3.98083 -6.3695 
4181 1 1 O 15.6 1.4447 7.43849 6.61575 4.32228 56.8587 6.61575 4.32228 1 0 0 0.00645318 1.46727e-05 0.00284351 -19.2092 1.16959 34.8924 
12515 1 11 D 0.4 -1.8447 7.43918 6.62123 4.31775 56.8594 6.62123 4.31775 1 0 0 0.00655345 0.00389642 0.00457578 3.36841 -9.26999 1.47235 
4182 1 2 C 11.61 2.6898 6.08328 6.39212 3.91951 55.5035 6.39212 3.91951 1 0 0 -0.00488914 0.00132454 0.0012198 3.40996 6.14026 -21.3138 
12516 1 12 D 0.4 -2.5798 6.09088 6.39343 3.91779 55.5111 6.39343 3.91779 1 0 0 -0.00492067 -0.00302284 -0.000757375 -1.93435 2.64839 1.13111 
3249 1 1 O 15.6 1.4447 12.9776 6.50666 0.628024 -36.4427 6.50666 50.0493 -1 0 1 0.00333705 0.00526961 -0.0011683 -8.09298 -36.7435 -14.8261 
5759 1 4 H 1.008 0.03 14.9846 0.367048 4.44251 64.4049 49.8297 103.285 1 1 2 -0.00212716 -0.00230358 -0.00794219 6.68882 7.7393 1.36977 
3251 1 3 C 11.61 2.4422 12.2811 7.00449 1.74287 -37.1391 7.00449 51.1641 -1 0 1 -0.00450524 -0.00556697 0.00464128 17.6005 -11.1698 -6.08264 
5508 1 3 C 11.61 2.4422 11.4035 0.371307 5.21241 11.4035 49.834 104.055 0 1 2 -0.002691 0.00197851 -0.00747262 -20.6772 30.7246 29.7042 
12513 1 13 D 0.4 -2.3022 9.01128 6.7097 6.20772 58.4315 6.7097 6.20772 1 0 0 0.00826374 0.00710979 0.00394184 -2.24865 0.946244 -0.269834 
3180 1 4 H 1.008 0.03 9.77642 2.0081 7.53156 59.1967 100.933 -91.3109 1 2 -2 0.00923187 -0.00623243 -0.0236371 -20.7261 12.0789 -2.69395 
12165 1 13 D 0.4 -2.3022 12.2733 7.00552 1.7342 -37.147 7.00552 51.1554 -1 0 1 -0.00530069 -0.00703323 0.00459691 3.7156 -0.814608 -0.438119 
5512 1 4 H 1.008 0.03 12.2974 3.62695 2.27772 12.2974 53.0896 101.12 0 1 2 0.00292425 0.0195443 0.00437102 2.67704 0.5442 0.723118 
4177 1 1 O 15.6 1.4447 9.61471 5.40408 6.17552 59.035 5.40408 6.17552 1 0 0 -0.00275023 -0.000393717 -0.00382454 33.4428 44.3294 -11.2043 
12511 1 11 D 0.4 -1.8447 9.61135 5.39726 6.17718 59.0316 5.39726 6.17718 1 0 0 -0.00217678 -0.00186499 -0.00236493 -0.338222 -1.87012 1.59345 
141 1 4 H 1.008 0.03 14.7842 4.06572 6.44338 113.625 102.991 55.8646 2 2 1 -0.0124129 0.020367 0.0172753 27.0001 -5.07588 -4.45684 
13010 1 12 D 0.4 -2.5798 12.4367 3.46111 3.34277 12.4367 52.9238 102.185 0 1 2 -0.00639638 0.000949628 -0.00179607 6.54988 16.7257 6.85938 
5506 1 2 C 11.61 2.6898 12.4441 3.47311 3.34847 12.4441 52.9358 102.191 0 1 2 -0.00337008 0.00217103 -0.00173031 -36.9362 -23.376 -24.3887 
5505 1 1 O 15.6 1.4447 12.1382 2.135 3.62158 12.1382 51.5977 102.464 0 1 2 0.00327104 0.00135354 -0.0057162 -6.52532 -20.0852 28.9947 
13009 1 11 D 0.4 -1.8447 12.1385 2.13445 3.61613 12.1385 51.5971 102.459 0 1 2 0.00334349 0.00244392 -0.00552826 -2.1507 0.796904 1.51286 
5511 1 4 H 1.008 0.03 11.745 4.1488 3.84339 11.745 53.6115 102.686 0 1 2 -0.0153639 -0.00737998 -0.00588053 7.00506 2.85788 1.12498 
5514 1 4 H 1.008 0.03 12.6777 1.94991 5.72419 12.6777 51.4126 104.567 0 1 2 -0.0201896 -0.0189494 0.0175012 23.6377 8.19402 -0.613755 
10997 1 11 D 0.4 -1.8447 14.5825 5.76969 5.61089 113.423 104.695 55.0321 2 2 1 -0.00405318 -0.00357578 -0.00237043 2.32777 1.15556 3.73092 
133 1 1 O 15.6 1.4447 14.591 5.77553 5.61022 113.431 104.701 55.0314 2 2 1 -0.00302944 -0.00352033 -0.00284371 28.1901 -7.38264 28.4962 
4184 1 4 H 1.008 0.03 11.414 6.12477 5.21593 60.8342 6.12477 5.21593 1 0 0 -0.00972357 0.00267359 -0.013239 -9.00863 -1.27559 6.0196 
134 1 2 C 11.61 2.6898 15.5193 4.74647 5.95528 114.36 103.672 55.3765 2 2 1 -0.00200115 0.00220059 0.00512268 -49.4939 4.27206 -4.45485 
5520 1 4 H 1.008 0.03 13.4565 3.63949 3.54815 13.4565 53.1022 102.391 0 1 2 -0.0242617 0.0295493 0.00370512 27.2317 12.9232 12.5979 
10998 1 12 D 0.4 -2.5798 15.5111 4.74307 5.95691 114.352 103.668 55.3781 2 2 1 -0.00198393 0.00176067 0.00577176 -2.363 -1.96266 -0.294743 
143 1 4 H 1.008 0.03 15.932 4.40117 5.04739 114.772 103.327 54.4686 2 2 1 -0.00529072 -0.0122619 -0.0068487 1.4233 -20.11 -20.345 
142 1 4 H 1.008 0.03 16.3957 4.96129 6.51935 115.236 103.887 55.9406 2 2 1 -0.0199147 -0.00995397 0.00341664 4.75451 11.7457 23.1603 
12512 1 12 D 0.4 -2.5798 11.0491 5.61765 6.1316 60.4694 5.61765 6.1316 1 0 0 0.00373525 0.00253187 -0.00325747 -1.32175 -0.738534 -0.428376 
4178 1 2 C 11.61 2.6898 11.0603 5.62337 6.12709 60.4805 5.62337 6.12709 1 0 0 0.0041449 0.0030769 -0.00199606 -39.3246 -4.51664 -13.0725 
3252 1 3 C 11.61 2.4422 10.817 7.21049 1.36703 -38.6032 7.21049 50.7883 -1 0 1 0.00312284 0.00865462 0.00707639 -21.9194 17.7591 -30.6661 
4192 1 4 H 1.008 0.03 11.5114 4.65866 6.05207 60.9316 4.65866 6.05207 1 0 0 0.00079669 0.00486504 -0.0100717 12.5723 -8.19896 14.5333 
12136 1 13 D 0.4 -2.3022 8.69411 2.30825 7.56729 58.1143 101.234 -91.2752 1 2 -2 -0.00770406 -0.00709192 0.00301753 -4.63559 0.407766 -0.913419 
3172 1 3 C 11.61 2.4422 8.69434 2.31537 7.56481 58.1146 101.241 -91.2777 1 2 -2 -0.00570814 -0.00875497 0.000687782 22.5353 10.0241 -8.4198 
3176 1 4 H 1.008 0.03 8.97044 2.36571 3.51103 58.3907 101.291 -95.3314 1 2 -2 0.0164473 -0.00595331 -0.00266272 7.818 1.49952 -2.64109 
3258 1 4 H 1.008 0.03 12.4603 6.19965 2.45797 -36.9599 6.19965 51.8792 -1 0 1 -0.0018038 -0.00623617 0.0120701 -10.4874 5.9768 6.69663 
13011 1 13 D 0.4 -2.3022 11.8753 1.85415 5.03878 11.8753 51.3168 103.881 0 1 2 0.0093845 -0.00492354 0.00723349 -5.96533 -0.197035 -6.20409 
2135 1 4 H 1.008 0.03 15.6503 4.70476 0.554004 65.0705 103.63 49.9752 1 2 1 0.0279103 -0.0124815 -0.0131375 -12.1971 -4.48869 3.2752 
6713 1 4 H 1.008 0.03 12.0483 0.365051 0.697559 -37.3719 99.2904 99.54 -1 2 2 0.000891976 0.023796 -0.0104385 -13.7646 -18.4906 4.96397 
2144 1 4 H 1.008 0.03 15.541 3.80369 2.10886 64.9613 102.729 51.5301 1 2 1 -0.0054551 0.000700372 -0.00169223 -41.4289 -10.3391 21.3434 
132 1 3 C 11.61 2.4422 15.294 6.89888 5.15869 114.135 105.824 54.5799 2 2 1 0.00346196 0.000586079 0.00357801 -11.4359 15.0702 -47.3025 
5758 1 4 H 1.008 0.03 15.1986 1.81643 5.50258 64.6189 51.2791 104.345 1 1 2 -0.0196439 0.0124211 0.00356711 -9.84403 8.19744 -4.74175 
11744 1 12 D 0.4 -2.5798 16.0893 4.43538 1.51452 65.5096 103.361 50.9357 1 2 1 0.000209038 0.00194611 0.00336066 0.973503 0.0349674 -10.0188 
2130 1 2 C 11.61 2.6898 16.0896 4.44456 1.5146 65.5099 103.37 50.9358 1 2 1 0.00089013 0.00118642 0.00176734 15.7267 1.38215 -28.8886 
2136 1 4 H 1.008 0.03 16.279 5.38504 2.00617 65.6992 104.31 51.4274 1 2 1 -0.00634756 -0.00259143 0.027096 11.2344 2.89674 8.20496 
13012 1 13 D 0.4 -2.3022 11.4095 0.371279 5.20949 11.4095 49.834 104.052 0 1 2 -0.00361029 0.00127224 -0.00672858 -3.02818 0.47274 -2.14288 
4186 1 4 H 1.008 0.03 9.0006 7.03931 7.2347 58.4208 7.03931 7.2347 1 0 0 -0.000540684 0.0064733 -0.00724891 7.22898 8.85757 10.8058 
139 1 4 H 1.008 0.03 16.3103 7.16101 5.37006 115.151 106.086 54.7913 2 2 1 0.0044472 0.00807033 -0.00745597 12.2926 -12.1676 21.0617 
3179 1 4 H 1.008 0.03 8.57202 3.27382 8.05684 57.9923 102.199 -90.7856 1 2 -2 -0.0257883 0.00223479 -0.00499594 15.4537 1.04086 8.38224 
12163 1 11 D 0.4 -1.8447 12.9782 6.50113 0.628331 -36.4421 6.50113 50.0496 -1 0 1 0.00327156 0.005255 -0.00043606 -1.72166 -2.87237 -4.01637 
12166 1 13 D 0.4 -2.3022 10.8177 7.2116 1.36139 -38.6025 7.2116 50.7826 -1 0 1 0.0029336 0.00833242 0.00645581 2.25345 1.53819 2.04686 
5750 1 2 C 11.61 2.6898 15.5314 0.817856 5.28664 64.9516 50.2806 104.129 1 1 2 0.00114316 -0.00318929 -0.002176 18.8244 -14.2244 49.3415 
1513 1 4 H 1.008 0.03 9.22316 3.31999 0.315488 58.6434 -46.1427 0.315488 1 -1 0 0.00332637 0.0197684 0.0139249 -15.1911 0.836927 -23.552 
4183 1 4 H 1.008 0.03 11.3249 6.21599 6.99234 60.7452 6.21599 6.99234 1 0 0 -0.0136312 0.00310525 0.0308735 14.1979 -3.58343 6.86828 
4179 1 3 C 11.61 2.4422 9.01121 6.71667 6.21199 58.4315 6.71667 6.21199 1 0 0 0.00681549 0.00520004 0.00506899 -31.9387 -44.4199 -4.91868 
140 1 4 H 1.008 0.03 15.3438 6.68693 4.0955 114.184 105.612 53.5167 2 2 1 0.0194286 -0.0118319 0.00694663 4.5451 2.35553 -4.82059 
10996 1 13 D 0.4 -2.3022 15.2777 6.89691 5.1602 114.118 105.822 54.5814 2 2 1 0.00465307 0.000965003 0.00454716 -0.110125 0.441551 -0.894743 
5757 1 4 H 1.008 0.03 16.6305 0.929453 5.16932 66.0507 50.3921 104.012 1 1 2 0.0255482 0.00673927 -0.00553198 -14.6192 -5.17658 -14.8865 
2719 1 4 H 1.008 0.03 15.8874 0.854174 1.56406 -33.5328 50.3169 50.9853 -1 1 1 0.00558615 -0.019339 0.026356 10.7624 -13.2094 -13.2549 
5507 1 3 C 11.61 2.4422 11.8695 1.85645 5.03883 11.8695 51.3191 103.881 0 1 2 0.00629731 -0.00431438 0.0011443 -21.5049 9.99968 -9.81586 
3260 1 4 H 1.008 0.03 10.2819 6.34759 0.922797 -39.1383 6.34759 50.344 -1 0 1 0.0144317 0.0227299 -0.0127865 19.5501 -0.810612 11.224 
5513 1 4 H 1.008 0.03 11.1381 2.64174 5.42865 11.1381 52.1044 104.271 0 1 2 -0.0139213 0.0147215 0.00459155 13.0279 -34.9293 -13.108 
13104 1 12 D 0.4 -2.5798 15.5344 0.819113 5.29358 64.9547 50.2818 104.136 1 1 2 0.00244313 -0.00374401 -0.00300265 2.07209 2.95658 -5.49276 
1266 1 2 C 11.61 2.6898 24.716 1.25463 3.62953 -24.7043 149.643 3.62953 -1 3 0 0.00568504 -0.0023666 -0.000145026 18.689 35.2512 -18.3817 
7752 1 4 H 1.008 0.03 24.2511 3.59309 0.376522 24.2511 53.0558 99.219 0 1 2 -0.00489076 0.00954734 0.00562962 15.1843 -5.8366 8.5894 
1965 1 4 H 1.008 0.03 23.5287 4.33455 7.92861 23.5287 4.33455 -90.9138 0 0 -2 -0.00926711 0.00964082 0.006908 -9.148 -15.4637 -4.9404 
2139 1 4 H 1.008 0.03 19.9901 2.79865 1.59497 69.4103 101.724 51.0162 1 2 1 -0.00417631 0.0484459 0.0148127 -7.81271 6.36316 -2.79935 
2138 1 4 H 1.008 0.03 18.3091 4.4022 2.56142 67.7294 103.328 51.9827 1 2 1 0.0140077 -0.00732476 0.00230151 -1.87923 -21.1142 4.69088 
2140 1 4 H 1.008 0.03 18.8212 1.52821 1.82448 68.2414 100.454 51.2457 1 2 1 -0.0309025 -0.00561751 -0.00385414 -7.06541 -20.6262 -10.8608 
2131 1 3 C 11.61 2.4422 17.9566 3.37098 2.30137 67.3768 102.296 51.7226 1 2 1 0.00609212 -0.00213226 -0.00573254 11.5135 21.3926 32.9768 
11745 1 13 D 0.4 -2.3022 17.955 3.36569 2.30068 67.3753 102.291 51.7219 1 2 1 0.00643265 -0.00260238 -0.00527987 -0.621128 1.74689 0.779178 
2132 1 3 C 11.61 2.4422 19.1551 2.44829 2.21154 68.5753 101.374 51.6328 1 2 1 1.08597e-05 0.00280393 0.00137911 14.5787 3.83678 35.1012 
11746 1 13 D 0.4 -2.3022 19.1493 2.44977 2.21411 68.5696 101.375 51.6353 1 2 1 -0.00217599 0.00223225 -0.000270048 1.19987 1.87443 1.71002 
2137 1 4 H 1.008 0.03 17.4105 2.92132 3.15869 66.8307 101.847 52.5799 1 2 1 -0.00724014 0.00815204 0.0149371 -4.98111 15.1579 -11.9117 
2133 1 1 O 15.6 1.4447 19.5849 2.22859 3.60291 69.0051 101.154 53.0241 1 2 1 -0.000984257 0.000843492 0.00496296 -0.146754 -2.67731 -55.2579 
11747 1 11 D 0.4 -1.8447 19.586 2.22833 3.60644 69.0062 101.154 53.0277 1 2 1 0.00143608 0.00153864 0.00626021 -1.14426 1.64647 1.29866 
2129 1 1 O 15.6 1.4447 17.1331 3.55638 1.1825 66.5533 102.482 50.6037 1 2 1 0.00231938 0.00620247 0.00399429 9.21273 -0.177747 -1.89721 
11743 1 11 D 0.4 -1.8447 17.1309 3.55364 1.17629 66.5512 102.479 50.5975 1 2 1 0.000286322 0.00593742 0.00406845 2.49814 -0.220541 -1.56025 
7760 1 4 H 1.008 0.03 23.1521 2.27719 0.871419 23.1521 51.7399 99.7139 0 1 2 -0.00561946 -0.0032146 -0.021875 1.27069 -0.240999 -6.65795 
1958 1 2 C 11.61 2.6898 22.9176 3.95733 7.08433 22.9176 3.95733 -91.7581 0 0 -2 -0.00239664 -0.000420642 0.000328842 28.6637 79.3971 -5.71497 
1967 1 4 H 1.008 0.03 21.8966 4.02748 7.37839 21.8966 4.02748 -91.4641 0 0 -2 0.017159 0.00486654 -0.0163636 -9.45377 -12.686 6.52947 
2134 1 2 C 11.61 2.6898 20.8725 1.641 3.60287 70.2927 100.566 53.0241 1 2 1 -0.00312941 -0.0047811 -0.00328261 41.6306 0.951142 24.9193 
1966 1 4 H 1.008 0.03 23.2629 3.01439 6.76226 23.2629 3.01439 -92.0802 0 0 -2 -0.0243107 0.000908912 0.0128244 2.48407 -24.1091 -7.26861 
11748 1 12 D 0.4 -2.5798 20.877 1.64129 3.60793 70.2973 100.567 53.0292 1 2 1 -0.00343999 -0.00589125 -0.00546498 -3.26185 -0.554175 3.42248 
1957 1 1 O 15.6 1.4447 23.1304 5.04096 6.11454 23.1304 5.04096 -92.7279 0 0 -2 0.0146684 0.00313469 2.86918e-05 -8.28205 -35.8768 -0.00167837 
11681 1 11 D 0.4 -1.8447 23.135 5.04327 6.12012 23.135 5.04327 -92.7223 0 0 -2 0.0150835 0.00294715 -8.62279e-05 -0.0656652 0.17362 0.594588 
11682 1 12 D 0.4 -2.5798 22.9269 3.95441 7.09001 22.9269 3.95441 -91.7524 0 0 -2 -0.00282639 0.000405127 0.0012541 -1.35107 7.15931 -0.224076 
11241 1 13 D 0.4 -2.3022 18.9811 5.17765 8.47936 18.9811 -44.285 8.47936 0 -1 0 0.000205264 0.00519242 0.00764794 9.43266 0.175217 3.6334 
787 1 3 C 11.61 2.4422 18.9831 5.17651 8.48563 18.9831 -44.2862 8.48563 0 -1 0 0.000300793 0.00418285 0.00184699 -1.71598 33.601 4.3816 
791 1 4 H 1.008 0.03 18.4851 2.64336 8.06667 18.4851 -46.8193 8.06667 0 -1 0 -0.00812373 0.0101496 0.0107401 9.22308 2.61765 -1.09598 
786 1 2 C 11.61 2.6898 19.5081 3.01884 7.88233 19.5081 -46.4439 7.88233 0 -1 0 -0.00362151 -0.00182254 0.00467707 19.9078 -17.0392 -24.519 
11240 1 12 D 0.4 -2.5798 19.5095 3.0284 7.87832 19.5095 -46.4343 7.87832 0 -1 0 -0.00383478 -0.00196361 0.000298052 0.835964 -7.08184 8.6081 
800 1 4 H 1.008 0.03 19.9832 2.49188 7.01696 19.9832 -46.9708 7.01696 0 -1 0 -0.00959742 0.0161578 -0.0188114 -13.6938 -0.100201 17.8399 
785 1 1 O 15.6 1.4447 19.5693 4.34365 7.4777 19.5693 -45.119 7.4777 0 -1 0 0.00204638 -0.00718157 0.00872754 -8.37301 29.4036 12.3887 
11239 1 11 D 0.4 -1.8447 19.5773 4.34725 7.47626 19.5773 -45.1154 7.47626 0 -1 0 0.00118325 -0.0013838 0.012764 -6.98047 -6.56618 2.35229 
1956 1 3 C 11.61 2.4422 22.311 4.81787 4.95464 22.311 4.81787 -93.8878 0 0 -2 -0.0025455 0.00382265 0.000125981 14.936 -11.1535 -5.09234 
11680 1 13 D 0.4 -2.3022 22.322 4.82001 4.95488 22.322 4.82001 -93.8876 0 0 -2 -0.00293975 0.00432131 0.00140769 0.630453 -0.0739805 0.600234 
1963 1 4 H 1.008 0.03 22.4626 3.77893 4.57841 22.4626 3.77893 -94.264 0 0 -2 -0.00595382 0.00200903 0.00756395 -1.66552 18.4377 3.05678 
1280 1 4 H 1.008 0.03 24.3324 1.97917 4.38541 -25.0879 150.367 4.38541 -1 3 0 0.0120014 -0.00386254 0.0100017 10.9892 -20.3639 0.970202 
1964 1 4 H 1.008 0.03 21.2944 4.90523 5.30824 21.2944 4.90523 -93.5342 0 0 -2 -0.0253543 0.0466132 0.0101928 -9.70801 -2.39388 -2.5119 
11420 1 12 D 0.4 -2.5798 24.7061 1.25096 3.62368 -24.7141 149.639 3.62368 -1 3 0 0.00800208 -0.00262889 0.000196405 0.848046 0.490546 -3.02504 
1953 1 1 O 15.6 1.4447 23.7819 5.79219 3.24179 23.7819 5.79219 -95.6007 0 0 -2 -0.00796807 -0.00528506 0.0124724 16.6253 29.6523 -31.8752 
11677 1 11 D 0.4 -1.8447 23.786 5.79048 3.23846 23.786 5.79048 -95.604 0 0 -2 -0.00889243 -0.00380383 0.0136195 0.124079 3.31593 3.02641 
11679 1 13 D 0.4 -2.3022 22.5382 5.86688 3.83295 22.5382 5.86688 -95.0095 0 0 -2 0.00279713 0.00460669 0.00116735 -3.33728 1.26639 1.95584 
1954 1 2 C 11.61 2.6898 23.8312 6.83499 2.20359 23.8312 6.83499 -96.6389 0 0 -2 0.0041964 0.00178099 -0.00168272 3.13409 -8.23647 37.3263 
1955 1 3 C 11.61 2.4422 22.5282 5.86746 3.83015 22.5282 5.86746 -95.0123 0 0 -2 0.00320006 0.00741482 -0.00028392 -28.2243 28.867 42.9634 
1962 1 4 H 1.008 0.03 22.3177 6.88906 4.32292 22.3177 6.88906 -94.5195 0 0 -2 0.00353622 0.00556804 -0.00190828 12.0083 -34.5213 -21.9896 
1961 1 4 H 1.008 0.03 21.7904 5.75323 3.03801 21.7904 5.75323 -95.8044 0 0 -2 0.0201872 0.0166909 -0.0239678 -6.58321 -4.77458 3.11006 
11678 1 12 D 0.4 -2.5798 23.8342 6.83953 2.19905 23.8342 6.83953 -96.6434 0 0 -2 0.00343302 0.000199846 -0.00333225 -0.628027 -8.5435 4.93255 
789 1 1 O 15.6 1.4447 18.1878 7.23059 7.18927 18.1878 -42.2321 7.18927 0 -1 0 0.00235308 0.00222999 0.00382877 -4.98333 -31.3683 1.08761 
1959 1 4 H 1.008 0.03 24.8391 6.97816 1.85873 24.8391 6.97816 -96.9837 0 0 -2 0.00165938 0.00321086 -0.0111738 8.09747 -8.45877 -12.3322 
2494 1 4 H 1.008 0.03 22.2449 7.15324 7.18992 -27.1753 106.079 56.6112 -1 2 1 -0.0166588 0.00875293 0.0109964 8.54697 27.0541 31.9003 
2143 1 4 H 1.008 0.03 21.0474 0.545517 3.42465 70.4677 99.4709 52.8459 1 2 1 0.0475968 -0.0157313 0.0102032 -17.4077 21.312 6.90642 
2142 1 4 H 1.008 0.03 21.6816 2.17314 3.05427 71.1018 101.099 52.4755 1 2 1 0.00526083 -0.00966063 0.013902 -18.9347 -2.38781 0.320149 
11243 1 11 D 0.4 -1.8447 18.1884 7.23378 7.18485 18.1884 -42.2289 7.18485 0 -1 0 0.00151222 0.000420485 0.00241001 -9.24117 -2.57722 7.3038 
2141 1 4 H 1.008 0.03 21.1428 1.86948 4.65215 70.563 100.795 54.0734 1 2 1 -0.00145954 -0.0076397 0.00825059 2.23009 -14.0383 -10.2595 
1968 1 4 H 1.008 0.03 23.1225 6.55431 1.43081 23.1225 6.55431 -97.4117 0 0 -2 0.0071737 0.0258867 -0.00314232 3.58182 6.01466 -11.3241 
795 1 4 H 1.008 0.03 20.1081 6.92118 7.81381 20.1081 -42.5415 7.81381 0 -1 0 0.00531592 0.0134238 -0.00406748 23.6432 -3.01001 -8.27168 
11242 1 13 D 0.4 -2.3022 19.124 6.68323 8.1244 19.124 -42.7795 8.1244 0 -1 0 -0.00497954 0.00223507 -0.000467134 5.23621 5.31167 -11.641 
788 1 3 C 11.61 2.4422 19.1273 6.6886 8.1215 19.1273 -42.7741 8.1215 0 -1 0 -0.0022405 0.000967827 0.0025286 -10.196 -22.3347 5.23848 
1272 1 4 H 1.008 0.03 23.8758 0.78798 3.18733 -25.5445 149.176 3.18733 -1 3 0 -0.0220412 0.00258094 0.0169466 -19.0951 -10.083 -0.722729 
3658 1 4 H 1.008 0.03 5.1283 6.80167 9.16855 202.809 6.80167 58.5898 4 0 1 0.00919527 -0.00580415 0.00149463 -7.94962 18.032 -2.6918 
13093 1 11 D 0.4 -1.8447 3.40606 0.785651 9.23446 3.40606 99.711 108.077 0 2 2 0.00198157 -0.00588177 -0.00576861 2.99896 0.800231 1.07734 
5729 1 1 O 15.6 1.4447 3.4088 0.783273 9.24247 3.4088 99.7087 108.085 0 2 2 0.00335026 -0.0062532 -0.00606528 -6.41014 -4.40141 5.40981 
3655 1 4 H 1.008 0.03 7.1617 3.91339 10.0269 204.843 3.91339 59.4482 4 0 1 0.0186308 -0.00262369 0.0119154 -10.9555 38.9146 -32.5038 
9245 1 4 H 1.008 0.03 1.5029 2.52404 13.9077 1.5029 101.449 -35.5136 0 2 -1 0.0228604 0.0181378 -0.0351762 4.43406 -6.15278 10.6216 
12314 1 12 D 0.4 -2.5798 6.6839 4.77509 9.39719 204.365 4.77509 58.8184 4 0 1 -0.00280385 -0.00299078 -0.00200398 3.54601 -9.61338 4.94574 
3650 1 2 C 11.61 2.6898 6.68324 4.76803 9.40014 204.364 4.76803 58.8214 4 0 1 -0.00249137 0.00338814 0.00156029 3.67409 -43.0898 38.8805 
3657 1 4 H 1.008 0.03 4.14667 5.35997 8.92275 201.828 5.35997 58.344 4 0 1 -0.00706651 -0.00918603 0.0291034 -6.57824 1.58485 -5.42164 
3656 1 4 H 1.008 0.03 7.39931 5.4955 9.15029 205.08 5.4955 58.5715 4 0 1 0.00815418 -0.0218367 0.0026769 17.3082 21.7213 0.4382 
5732 1 3 C 11.61 2.4422 5.31252 1.47153 10.6836 5.31252 100.397 109.526 0 2 2 -0.00722641 -0.00407831 -0.00173199 29.2487 1.02385 -30.1708 
5738 1 4 H 1.008 0.03 4.20523 2.44192 9.08422 4.20523 101.367 107.927 0 2 2 0.00605075 0.00819079 -0.00375769 12.1754 28.1169 -7.92581 
6939 1 4 H 1.008 0.03 1.37781 5.87234 14.4975 1.37781 5.87234 14.4975 0 0 0 -0.010802 -0.0176406 0.000130717 -8.26745 -9.28951 -6.08068 
3661 1 4 H 1.008 0.03 2.0326 4.50397 9.79438 199.714 4.50397 59.2156 4 0 1 0.00996405 -0.00669168 -0.0120034 -7.68845 2.64278 2.17391 
3663 1 4 H 1.008 0.03 1.59662 3.8169 11.3867 199.278 3.8169 60.8079 4 0 1 0.00199978 -0.0208179 -0.0152725 9.01972 14.5711 -10.1542 
13546 1 13 D 0.4 -2.3022 0.508624 6.45044 14.8404 0.508624 6.45044 14.8404 0 0 0 0.000258245 0.00101895 -0.00140432 -1.0334 -1.12666 1.70513 
6932 1 3 C 11.61 2.4422 0.516255 6.446 14.8419 0.516255 6.446 14.8419 0 0 0 0.00115317 0.00179004 -0.00148628 13.0901 38.95 -21.6862 
3654 1 2 C 11.61 2.6898 1.94153 4.74199 10.8601 199.622 4.74199 60.2813 4 0 1 -0.00110092 0.0046631 -0.0017638 30.4113 -55.5543 12.9762 
12318 1 12 D 0.4 -2.5798 1.94487 4.73731 10.8613 199.626 4.73731 60.2825 4 0 1 0.00108794 0.00373951 0.00442927 -5.10979 4.16152 -7.01609 
3660 1 4 H 1.008 0.03 4.15331 6.95435 11.5672 201.834 6.95435 60.9884 4 0 1 -0.00830983 -0.0140928 0.00273062 -10.2779 -12.8996 -16.1016 
12317 1 11 D 0.4 -1.8447 3.24204 5.10567 11.3294 200.923 5.10567 60.7506 4 0 1 0.00486429 -0.00362695 -0.00392613 -0.867069 1.56497 3.52576 
3653 1 1 O 15.6 1.4447 3.24088 5.11003 11.3291 200.922 5.11003 60.7504 4 0 1 0.00196594 -0.00199913 0.000855341 -21.6537 0.501333 4.40643 
3652 1 3 C 11.61 2.4422 3.64282 6.3428 10.7769 201.324 6.3428 60.1981 4 0 1 0.00346926 -0.00613791 -0.00605869 -2.39772 29.0637 11.5252 
12316 1 13 D 0.4 -2.3022 3.65094 6.33749 10.7823 201.332 6.33749 60.2035 4 0 1 0.00333 -0.00699259 -0.00550239 -0.163438 0.323075 -3.33056 
12313 1 11 D 0.4 -1.8447 5.65162 5.21174 10.2484 203.333 5.21174 59.6697 4 0 1 -1.5044e-05 0.00536216 -0.000184852 -0.0723453 8.10535 0.30275 
3649 1 1 O 15.6 1.4447 5.64576 5.21759 10.2483 203.327 5.21759 59.6696 4 0 1 -0.00213685 0.000307336 -0.000144708 -8.40447 -0.690497 4.19629 
9241 1 4 H 1.008 0.03 5.83329 3.80098 13.2789 5.83329 102.726 -36.1423 0 2 -1 0.00679055 -0.0232829 0.00212103 3.29642 8.07797 14.303 
12315 1 13 D 0.4 -2.3022 4.60688 5.99985 9.67016 202.288 5.99985 59.0914 4 0 1 0.00278191 0.00630653 -0.00166995 -0.699524 -3.75188 -3.90344 
3651 1 3 C 11.61 2.4422 4.60206 6.00441 9.66245 202.283 6.00441 59.0837 4 0 1 0.00255625 0.00646924 0.000724207 37.6373 -27.5939 0.986441 
9248 1 4 H 1.008 0.03 7.98868 4.18398 14.8791 7.98868 103.109 -34.5421 0 2 -1 -0.0137072 0.0118093 0.000511855 -14.9939 7.23394 -1.5773 
9240 1 4 H 1.008 0.03 6.76492 5.41684 15.4973 6.76492 104.342 -33.9239 0 2 -1 0.00168079 -0.0134401 -0.0181976 17.6444 4.44332 7.32486 
14409 1 13 D 0.4 -2.3022 5.26993 3.95695 14.2342 5.26993 102.882 -35.1871 0 2 -1 0.00179322 0.0028641 0.00221893 9.50622 -1.7664 -4.02069 
9235 1 3 C 11.61 2.4422 5.27308 3.95503 14.223 5.27308 102.88 -35.1982 0 2 -1 -0.000755993 0.00170272 0.00241726 11.0563 -18.5515 12.1095 
9242 1 4 H 1.008 0.03 5.02399 5.00787 14.3484 5.02399 103.933 -35.0728 0 2 -1 0.0336641 -0.0189531 -0.0184584 -7.60275 0.999038 -10.7843 
5737 1 4 H 1.008 0.03 3.41953 2.33813 10.6612 3.41953 101.264 109.504 0 2 2 0.0142804 0.0316379 0.000508021 -11.7077 4.54012 -6.85814 